    2    2    1    1
  0.2001287E+02  0.3839590E-09  0.3839590E-09  0.3839590E-09  0.5000000E-15
  1.000000000000000E-004
  CAR 
 Si                                      
      8     76     24
 
  0.0000000E+00  0.0000000E+00  0.0000000E+00  0.4629630E-02
    1       -7.829005   1.000000
    2        5.470738   1.000000
    3        5.470739   1.000000
    4        5.470739   1.000000
    5        8.814439   0.000000
    6        8.814439   0.000000
    7        8.814439   0.000000
    8        9.818731   0.000000
    9       14.278900   0.000000
   10       14.278900   0.000000
   11       14.288631   0.000000
   12       17.823292   0.000000
   13       17.823292   0.000000
   14       17.823292   0.000000
   15       21.774551   0.000000
   16       30.259616   0.000000
   17       30.259616   0.000000
   18       30.259620   0.000000
   19       31.558595   0.000000
   20       31.558595   0.000000
   21       33.123553   0.000000
   22       33.123553   0.000000
   23       33.123557   0.000000
   24       36.297320   0.000000
 
  0.1666667E+00  0.0000000E+00  0.0000000E+00  0.3703704E-01
    1       -7.428344   1.000000
    2        2.910792   1.000000
    3        4.996861   1.000000
    4        4.996861   1.000000
    5        8.601754   0.000000
    6        9.503002   0.000000
    7        9.503003   0.000000
    8       11.951106   0.000000
    9       13.574050   0.000000
   10       13.574050   0.000000
   11       15.510236   0.000000
   12       17.163808   0.000000
   13       19.834923   0.000000
   14       19.834923   0.000000
   15       23.890615   0.000000
   16       27.003201   0.000000
   17       27.003214   0.000000
   18       27.657575   0.000000
   19       31.189266   0.000000
   20       31.189302   0.000000
   21       33.780136   0.000000
   22       33.780138   0.000000
   23       35.160300   0.000000
   24       36.635611   0.000000
 
  0.3333333E+00  0.0000000E+00  0.0000000E+00  0.3703704E-01
    1       -6.299192   1.000000
    2       -0.408162   1.000000
    3        4.384330   1.000000
    4        4.384330   1.000000
    5        7.974297   0.000000
    6        9.813844   0.000000
    7        9.813846   0.000000
    8       14.352464   0.000000
    9       14.552901   0.000000
   10       14.552905   0.000000
   11       15.671989   0.000000
   12       20.359687   0.000000
   13       21.583747   0.000000
   14       21.583754   0.000000
   15       23.813510   0.000000
   16       24.443465   0.000000
   17       24.443466   0.000000
   18       28.492871   0.000000
   19       31.348159   0.000000
   20       31.348197   0.000000
   21       32.406596   0.000000
   22       34.172923   0.000000
   23       34.172924   0.000000
   24       36.385988   0.000000
 
  0.5000000E+00  0.0000000E+00  0.0000000E+00  0.1851852E-01
    1       -5.234226   1.000000
    2       -2.251318   1.000000
    3        4.157766   1.000000
    4        4.157767   1.000000
    5        7.734559   0.000000
    6        9.627831   0.000000
    7        9.627833   0.000000
    8       14.110767   0.000000
    9       17.298488   0.000000
   10       17.298496   0.000000
   11       18.041720   0.000000
   12       18.117863   0.000000
   13       18.117866   0.000000
   14       19.954713   0.000000
   15       26.424703   0.000000
   16       26.850056   0.000000
   17       28.538154   0.000000
   18       28.538162   0.000000
   19       28.974688   0.000000
   20       28.974708   0.000000
   21       32.515562   0.000000
   22       33.518645   0.000000
   23       33.518672   0.000000
   24       34.880292   0.000000
 
  0.1666667E+00  0.1666667E+00  0.0000000E+00  0.2777778E-01
    1       -7.291892   1.000000
    2        3.293230   1.000000
    3        4.196813   1.000000
    4        4.196813   1.000000
    5        7.861248   0.000000
    6       10.679271   0.000000
    7       10.716532   0.000000
    8       10.716532   0.000000
    9       13.126315   0.000000
   10       14.852517   0.000000
   11       16.216256   0.000000
   12       18.704460   0.000000
   13       18.704460   0.000000
   14       19.253745   0.000000
   15       25.042654   0.000000
   16       26.509662   0.000000
   17       26.509663   0.000000
   18       27.788106   0.000000
   19       29.141584   0.000000
   20       30.893049   0.000000
   21       34.053907   0.000000
   22       34.486581   0.000000
   23       34.486588   0.000000
   24       39.102185   0.000000
 
  0.3333333E+00  0.1666667E+00  0.0000000E+00  0.1111111E+00
    1       -6.385424   1.000000
    2        0.601552   1.000000
    3        3.344769   1.000000
    4        3.574819   1.000000
    5        8.120713   0.000000
    6       10.429382   0.000000
    7       10.860535   0.000000
    8       11.502701   0.000000
    9       15.714894   0.000000
   10       15.862386   0.000000
   11       16.947984   0.000000
   12       19.520217   0.000000
   13       20.622882   0.000000
   14       22.212450   0.000000
   15       22.768880   0.000000
   16       23.790926   0.000000
   17       26.967679   0.000000
   18       27.729570   0.000000
   19       28.803313   0.000000
   20       30.321732   0.000000
   21       32.687271   0.000000
   22       33.777153   0.000000
   23       34.794172   0.000000
   24       36.626672   0.000000
 
  0.5000000E+00  0.1666667E+00  0.0000000E+00  0.1111111E+00
    1       -5.056300   1.000000
    2       -1.841183   1.000000
    3        2.474147   1.000000
    4        3.531862   1.000000
    5        8.222993   0.000000
    6       10.442214   0.000000
    7       11.005839   0.000000
    8       12.925470   0.000000
    9       15.984509   0.000000
   10       17.216828   0.000000
   11       18.459554   0.000000
   12       18.647972   0.000000
   13       19.562471   0.000000
   14       23.119661   0.000000
   15       24.924020   0.000000
   16       25.912104   0.000000
   17       27.046540   0.000000
   18       27.694328   0.000000
   19       28.232254   0.000000
   20       29.899788   0.000000
   21       31.014724   0.000000
   22       33.210705   0.000000
   23       34.068857   0.000000
   24       34.272046   0.000000
 
 -0.3333333E+00  0.1666667E+00  0.0000000E+00  0.1111111E+00
    1       -5.486188   1.000000
    2       -1.166698   1.000000
    3        2.172281   1.000000
    4        4.058776   1.000000
    5        8.685556   0.000000
    6       10.423120   0.000000
    7       10.605802   0.000000
    8       13.847404   0.000000
    9       13.853461   0.000000
   10       16.042459   0.000000
   11       18.083800   0.000000
   12       19.702371   0.000000
   13       21.689875   0.000000
   14       22.397206   0.000000
   15       23.255831   0.000000
   16       24.821792   0.000000
   17       27.083812   0.000000
   18       28.994409   0.000000
   19       29.231189   0.000000
   20       30.000571   0.000000
   21       31.699507   0.000000
   22       31.821587   0.000000
   23       34.550860   0.000000
   24       34.785004   0.000000
 
 -0.1666667E+00  0.1666667E+00  0.0000000E+00  0.5555556E-01
    1       -6.774783   1.000000
    2        1.407625   1.000000
    3        2.885643   1.000000
    4        4.860834   1.000000
    5        9.361130   0.000000
    6        9.909402   0.000000
    7       10.096798   0.000000
    8       12.119525   0.000000
    9       12.505669   0.000000
   10       16.106693   0.000000
   11       17.039191   0.000000
   12       18.080953   0.000000
   13       20.087849   0.000000
   14       22.424866   0.000000
   15       22.939950   0.000000
   16       25.707950   0.000000
   17       27.389768   0.000000
   18       27.881579   0.000000
   19       27.909356   0.000000
   20       29.754299   0.000000
   21       33.966103   0.000000
   22       34.173764   0.000000
   23       35.514808   0.000000
   24       36.828975   0.000000
 
  0.3333333E+00  0.3333333E+00  0.0000000E+00  0.2777778E-01
    1       -5.711697   1.000000
    2       -0.046599   1.000000
    3        2.823278   1.000000
    4        2.823279   1.000000
    5        6.796621   0.000000
    6        8.152676   0.000000
    7       13.882335   0.000000
    8       13.882335   0.000000
    9       16.555212   0.000000
   10       16.620375   0.000000
   11       19.755402   0.000000
   12       20.391073   0.000000
   13       20.391074   0.000000
   14       21.748557   0.000000
   15       23.101384   0.000000
   16       23.101384   0.000000
   17       23.145029   0.000000
   18       26.204032   0.000000
   19       30.125142   0.000000
   20       31.635766   0.000000
   21       32.553365   0.000000
   22       32.553367   0.000000
   23       33.583423   0.000000
   24       34.540722   0.000000
 
  0.5000000E+00  0.3333333E+00  0.0000000E+00  0.1111111E+00
    1       -4.411408   1.000000
    2       -1.798940   1.000000
    3        1.512948   1.000000
    4        2.666849   1.000000
    5        7.157665   0.000000
    6        8.917215   0.000000
    7       14.059405   0.000000
    8       14.100454   0.000000
    9       17.418953   0.000000
   10       17.462432   0.000000
   11       19.172361   0.000000
   12       19.825552   0.000000
   13       21.343141   0.000000
   14       22.728635   0.000000
   15       22.954552   0.000000
   16       25.382857   0.000000
   17       25.736202   0.000000
   18       26.301846   0.000000
   19       27.633737   0.000000
   20       29.778466   0.000000
   21       30.141499   0.000000
   22       30.649609   0.000000
   23       31.637189   0.000000
   24       33.709382   0.000000
 
 -0.3333333E+00  0.3333333E+00  0.0000000E+00  0.5555556E-01
    1       -4.190989   1.000000
    2       -2.029057   1.000000
    3        0.646058   1.000000
    4        3.159685   1.000000
    5        7.706625   0.000000
    6       12.182840   0.000000
    7       13.064781   0.000000
    8       13.669382   0.000000
    9       14.076006   0.000000
   10       14.173598   0.000000
   11       21.050085   0.000000
   12       21.561525   0.000000
   13       22.733412   0.000000
   14       22.813180   0.000000
   15       23.693086   0.000000
   16       24.690974   0.000000
   17       25.537080   0.000000
   18       26.813985   0.000000
   19       29.315925   0.000000
   20       29.527029   0.000000
   21       29.744717   0.000000
   22       30.892844   0.000000
   23       33.515132   0.000000
   24       33.834861   0.000000
 
  0.5000000E+00  0.5000000E+00  0.0000000E+00  0.1388889E-01
    1       -3.205843   1.000000
    2       -3.205843   1.000000
    3        2.331997   1.000000
    4        2.331998   1.000000
    5        6.778092   0.000000
    6        6.778094   0.000000
    7       16.987261   0.000000
    8       16.987262   0.000000
    9       17.729092   0.000000
   10       17.729093   0.000000
   11       19.342563   0.000000
   12       19.342563   0.000000
   13       19.931826   0.000000
   14       19.931827   0.000000
   15       25.705411   0.000000
   16       25.705419   0.000000
   17       26.467019   0.000000
   18       26.467020   0.000000
   19       27.087308   0.000000
   20       27.087309   0.000000
   21       28.329965   0.000000
   22       28.329967   0.000000
   23       32.859783   0.000000
   24       32.859826   0.000000
 
  0.5000000E+00  0.3333333E+00  0.1666667E+00  0.1111111E+00
    1       -5.281523   1.000000
    2       -0.761486   1.000000
    3        1.588940   1.000000
    4        2.989023   1.000000
    5        9.073371   0.000000
    6        9.960753   0.000000
    7       10.623000   0.000000
    8       13.650486   0.000000
    9       15.664578   0.000000
   10       16.644563   0.000000
   11       19.814199   0.000000
   12       20.054942   0.000000
   13       20.547819   0.000000
   14       21.848586   0.000000
   15       23.417407   0.000000
   16       24.874213   0.000000
   17       26.613714   0.000000
   18       27.946352   0.000000
   19       28.179497   0.000000
   20       29.634265   0.000000
   21       31.432989   0.000000
   22       31.460367   0.000000
   23       33.429753   0.000000
   24       34.702086   0.000000
 
 -0.3333333E+00  0.3333333E+00  0.1666667E+00  0.1111111E+00
    1       -4.179983   1.000000
    2       -2.110356   1.000000
    3        1.097028   1.000000
    4        2.475016   1.000000
    5        9.572218   0.000000
    6        9.870419   0.000000
    7       12.546655   0.000000
    8       13.078536   0.000000
    9       14.176182   0.000000
   10       17.909370   0.000000
   11       18.769180   0.000000
   12       20.113726   0.000000
   13       23.305994   0.000000
   14       23.877107   0.000000
   15       23.938750   0.000000
   16       24.917651   0.000000
   17       25.399291   0.000000
   18       27.650387   0.000000
   19       28.009169   0.000000
   20       28.683085   0.000000
   21       30.009833   0.000000
   22       32.614140   0.000000
   23       32.636133   0.000000
   24       32.886771   0.000000
 
 -0.3333333E+00  0.5000000E+00  0.1666667E+00  0.5555556E-01
    1       -3.070766   1.000000
    2       -3.070766   1.000000
    3        1.497746   1.000000
    4        1.497747   1.000000
    5        8.949600   0.000000
    6        8.949602   0.000000
    7       13.312963   0.000000
    8       13.312967   0.000000
    9       17.393699   0.000000
   10       17.393700   0.000000
   11       19.824272   0.000000
   12       19.824273   0.000000
   13       23.340235   0.000000
   14       23.340236   0.000000
   15       24.194159   0.000000
   16       24.194170   0.000000
   17       25.594357   0.000000
   18       25.594359   0.000000
   19       28.658413   0.000000
   20       28.658430   0.000000
   21       30.304124   0.000000
   22       30.304126   0.000000
   23       31.644253   0.000000
   24       31.644256   0.000000
 
  0.5000000E+00  0.5000000E+00  0.5000000E+00  0.0000000E+00
    1       -5.233412   1.000000
    2       -2.250642   1.000000
    3        4.158172   1.000000
    4        4.159198   1.000000
    5        7.735754   0.000000
    6        9.629138   0.000000
    7        9.631687   0.000000
    8       14.113792   0.000000
    9       17.299890   0.000000
   10       17.300282   0.000000
   11       18.043937   0.000000
   12       18.119405   0.000000
   13       18.121507   0.000000
   14       19.955566   0.000000
   15       26.428602   0.000000
   16       26.854651   0.000000
   17       28.540502   0.000000
   18       28.544611   0.000000
   19       28.977006   0.000000
   20       28.978071   0.000000
   21       32.536539   0.000000
   22       33.540799   0.000000
   23       33.562679   0.000000
   24       34.924289   0.000000
 
  0.4736842E+00  0.4736842E+00  0.4736842E+00  0.0000000E+00
    1       -5.277387   1.000000
    2       -2.187190   1.000000
    3        4.163906   1.000000
    4        4.165050   1.000000
    5        7.741743   0.000000
    6        9.635413   0.000000
    7        9.638585   0.000000
    8       14.124748   0.000000
    9       17.005337   0.000000
   10       17.007373   0.000000
   11       17.901559   0.000000
   12       18.433516   0.000000
   13       18.435103   0.000000
   14       20.086516   0.000000
   15       25.780349   0.000000
   16       27.532215   0.000000
   17       28.006822   0.000000
   18       28.009960   0.000000
   19       29.474885   0.000000
   20       29.479801   0.000000
   21       32.276620   0.000000
   22       33.577279   0.000000
   23       33.596937   0.000000
   24       34.942866   0.000000
 
  0.4473684E+00  0.4473684E+00  0.4473684E+00  0.0000000E+00
    1       -5.398599   1.000000
    2       -2.007346   1.000000
    3        4.181033   1.000000
    4        4.182658   1.000000
    5        7.760041   0.000000
    6        9.653749   0.000000
    7        9.658354   0.000000
    8       14.156270   0.000000
    9       16.514696   0.000000
   10       16.517573   0.000000
   11       17.559438   0.000000
   12       18.986488   0.000000
   13       18.989234   0.000000
   14       20.388526   0.000000
   15       25.009303   0.000000
   16       27.295401   0.000000
   17       27.298711   0.000000
   18       28.402838   0.000000
   19       30.077505   0.000000
   20       30.088904   0.000000
   21       31.710346   0.000000
   22       33.686249   0.000000
   23       33.716845   0.000000
   24       34.978115   0.000000
 
  0.4210526E+00  0.4210526E+00  0.4210526E+00  0.0000000E+00
    1       -5.574031   1.000000
    2       -1.733615   1.000000
    3        4.209573   1.000000
    4        4.211525   1.000000
    5        7.790645   0.000000
    6        9.682672   0.000000
    7        9.687817   0.000000
    8       14.203124   0.000000
    9       16.014622   0.000000
   10       16.017951   0.000000
   11       17.129785   0.000000
   12       19.590261   0.000000
   13       19.595804   0.000000
   14       20.723014   0.000000
   15       24.323356   0.000000
   16       26.583794   0.000000
   17       26.613985   0.000000
   18       29.391849   0.000000
   19       30.609932   0.000000
   20       30.634387   0.000000
   21       31.045301   0.000000
   22       33.865705   0.000000
   23       34.090933   0.000000
   24       35.220376   0.000000
 
  0.3947368E+00  0.3947368E+00  0.3947368E+00  0.0000000E+00
    1       -5.780858   1.000000
    2       -1.390396   1.000000
    3        4.249321   1.000000
    4        4.251277   1.000000
    5        7.833037   0.000000
    6        9.720144   0.000000
    7        9.725405   0.000000
    8       14.262697   0.000000
    9       15.534900   0.000000
   10       15.538050   0.000000
   11       16.670395   0.000000
   12       20.211307   0.000000
   13       20.211784   0.000000
   14       20.938286   0.000000
   15       23.796203   0.000000
   16       25.876802   0.000000
   17       25.878192   0.000000
   18       29.923715   0.000000
   19       30.568786   0.000000
   20       30.963051   0.000000
   21       30.969938   0.000000
   22       34.007931   0.000000
   23       34.077066   0.000000
   24       35.312686   0.000000
 
  0.3684211E+00  0.3684211E+00  0.3684211E+00  0.0000000E+00
    1       -6.001778   1.000000
    2       -0.995009   1.000000
    3        4.300154   1.000000
    4        4.302032   1.000000
    5        7.886977   0.000000
    6        9.761897   0.000000
    7        9.766876   0.000000
    8       14.323405   0.000000
    9       15.086759   0.000000
   10       15.089725   0.000000
   11       16.214191   0.000000
   12       20.829737   0.000000
   13       20.829963   0.000000
   14       20.891655   0.000000
   15       23.582955   0.000000
   16       25.209915   0.000000
   17       25.210688   0.000000
   18       29.429671   0.000000
   19       31.199928   0.000000
   20       31.205030   0.000000
   21       31.252932   0.000000
   22       34.144532   0.000000
   23       34.225053   0.000000
   24       35.914763   0.000000
 
  0.3421053E+00  0.3421053E+00  0.3421053E+00  0.0000000E+00
    1       -6.225228   1.000000
    2       -0.559595   1.000000
    3        4.361843   1.000000
    4        4.363739   1.000000
    5        7.952218   0.000000
    6        9.802456   0.000000
    7        9.807486   0.000000
    8       14.358977   0.000000
    9       14.678739   0.000000
   10       14.681672   0.000000
   11       15.796095   0.000000
   12       20.530795   0.000000
   13       21.410956   0.000000
   14       21.411365   0.000000
   15       23.715520   0.000000
   16       24.613716   0.000000
   17       24.614415   0.000000
   18       28.726416   0.000000
   19       31.325380   0.000000
   20       31.326141   0.000000
   21       32.115439   0.000000
   22       34.182222   0.000000
   23       34.191524   0.000000
   24       36.415733   0.000000
 
  0.3157895E+00  0.3157895E+00  0.3157895E+00  0.0000000E+00
    1       -6.443823   1.000000
    2       -0.092420   1.000000
    3        4.433950   1.000000
    4        4.436189   1.000000
    5        8.028203   0.000000
    6        9.834563   0.000000
    7        9.840645   0.000000
    8       14.306267   0.000000
    9       14.319252   0.000000
   10       14.322029   0.000000
   11       15.481725   0.000000
   12       19.981287   0.000000
   13       21.863090   0.000000
   14       21.863556   0.000000
   15       24.060145   0.000000
   16       24.182489   0.000000
   17       24.185292   0.000000
   18       28.037313   0.000000
   19       31.377748   0.000000
   20       31.379841   0.000000
   21       33.099067   0.000000
   22       34.194927   0.000000
   23       34.327707   0.000000
   24       36.990282   0.000000
 
  0.2894737E+00  0.2894737E+00  0.2894737E+00  0.0000000E+00
    1       -6.652700   1.000000
    2        0.400659   1.000000
    3        4.516010   1.000000
    4        4.518333   1.000000
    5        8.114241   0.000000
    6        9.849600   0.000000
    7        9.855988   0.000000
    8       14.017884   0.000000
    9       14.019731   0.000000
   10       14.083527   0.000000
   11       15.350110   0.000000
   12       19.364150   0.000000
   13       21.983457   0.000000
   14       21.983563   0.000000
   15       24.118448   0.000000
   16       24.121764   0.000000
   17       24.476790   0.000000
   18       27.398032   0.000000
   19       31.379211   0.000000
   20       31.382395   0.000000
   21       34.011840   0.000000
   22       34.154084   0.000000
   23       34.312912   0.000000
   24       36.895134   0.000000
 
  0.2631579E+00  0.2631579E+00  0.2631579E+00  0.0000000E+00
    1       -6.848684   1.000000
    2        0.914884   1.000000
    3        4.607239   1.000000
    4        4.609480   1.000000
    5        8.209316   0.000000
    6        9.838407   0.000000
    7        9.844837   0.000000
    8       13.709345   0.000000
    9       13.784270   0.000000
   10       13.785570   0.000000
   11       15.376021   0.000000
   12       18.743359   0.000000
   13       21.705933   0.000000
   14       21.706280   0.000000
   15       24.489037   0.000000
   16       24.492122   0.000000
   17       24.845536   0.000000
   18       26.879641   0.000000
   19       31.353079   0.000000
   20       31.358301   0.000000
   21       34.074131   0.000000
   22       34.253660   0.000000
   23       34.920844   0.000000
   24       36.700271   0.000000
 
  0.2368421E+00  0.2368421E+00  0.2368421E+00  0.0000000E+00
    1       -7.029602   1.000000
    2        1.446092   1.000000
    3        4.706492   1.000000
    4        4.708636   1.000000
    5        8.311996   0.000000
    6        9.793272   0.000000
    7        9.799636   0.000000
    8       13.260743   0.000000
    9       13.625885   0.000000
   10       13.626751   0.000000
   11       15.469326   0.000000
   12       18.159544   0.000000
   13       21.234992   0.000000
   14       21.235731   0.000000
   15       24.964734   0.000000
   16       25.088271   0.000000
   17       25.090959   0.000000
   18       26.661633   0.000000
   19       31.311294   0.000000
   20       31.318299   0.000000
   21       34.000988   0.000000
   22       34.197440   0.000000
   23       35.608317   0.000000
   24       36.620037   0.000000
 
  0.2105263E+00  0.2105263E+00  0.2105263E+00  0.0000000E+00
    1       -7.193925   1.000000
    2        1.990318   1.000000
    3        4.812222   1.000000
    4        4.813763   1.000000
    5        8.419255   0.000000
    6        9.711379   0.000000
    7        9.713729   0.000000
    8       12.780258   0.000000
    9       13.546045   0.000000
   10       13.546550   0.000000
   11       15.556839   0.000000
   12       17.655182   0.000000
   13       20.709231   0.000000
   14       20.709706   0.000000
   15       24.696223   0.000000
   16       25.778435   0.000000
   17       25.778959   0.000000
   18       26.871410   0.000000
   19       31.264234   0.000000
   20       31.264428   0.000000
   21       33.910067   0.000000
   22       33.918758   0.000000
   23       35.677491   0.000000
   24       36.895387   0.000000
 
  0.1842105E+00  0.1842105E+00  0.1842105E+00  0.0000000E+00
    1       -7.340664   1.000000
    2        2.541981   1.000000
    3        4.922423   1.000000
    4        4.923418   1.000000
    5        8.529436   0.000000
    6        9.595380   0.000000
    7        9.597290   0.000000
    8       12.285337   0.000000
    9       13.540917   0.000000
   10       13.541333   0.000000
   11       15.575410   0.000000
   12       17.292672   0.000000
   13       20.179151   0.000000
   14       20.179430   0.000000
   15       24.229981   0.000000
   16       26.507713   0.000000
   17       26.508144   0.000000
   18       27.314965   0.000000
   19       31.217606   0.000000
   20       31.218009   0.000000
   21       33.833717   0.000000
   22       33.838154   0.000000
   23       35.401332   0.000000
   24       36.746456   0.000000
 
  0.1578947E+00  0.1578947E+00  0.1578947E+00  0.0000000E+00
    1       -7.468958   1.000000
    2        3.095673   1.000000
    3        5.034291   1.000000
    4        5.035079   1.000000
    5        8.637941   0.000000
    6        9.454708   0.000000
    7        9.456321   0.000000
    8       11.786441   0.000000
    9       13.600311   0.000000
   10       13.600764   0.000000
   11       15.455964   0.000000
   12       17.137208   0.000000
   13       19.667292   0.000000
   14       19.667603   0.000000
   15       23.720613   0.000000
   16       27.251843   0.000000
   17       27.252109   0.000000
   18       27.834933   0.000000
   19       31.177510   0.000000
   20       31.177985   0.000000
   21       33.755030   0.000000
   22       33.757178   0.000000
   23       35.045910   0.000000
   24       36.648816   0.000000
 
  0.1315790E+00  0.1315790E+00  0.1315790E+00  0.0000000E+00
    1       -7.578261   1.000000
    2        3.642719   1.000000
    3        5.144065   1.000000
    4        5.144643   1.000000
    5        8.738157   0.000000
    6        9.301965   0.000000
    7        9.303263   0.000000
    8       11.294341   0.000000
    9       13.709604   0.000000
   10       13.710131   0.000000
   11       15.212794   0.000000
   12       17.173445   0.000000
   13       19.187330   0.000000
   14       19.187668   0.000000
   15       23.223617   0.000000
   16       27.992147   0.000000
   17       27.992297   0.000000
   18       28.373703   0.000000
   19       31.150705   0.000000
   20       31.151007   0.000000
   21       33.671939   0.000000
   22       33.673099   0.000000
   23       34.659864   0.000000
   24       36.620418   0.000000
 
  0.1052632E+00  0.1052632E+00  0.1052632E+00  0.0000000E+00
    1       -7.668156   1.000000
    2        4.170340   1.000000
    3        5.247049   1.000000
    4        5.247619   1.000000
    5        8.820686   0.000000
    6        9.151109   0.000000
    7        9.152990   0.000000
    8       10.825404   0.000000
    9       13.850665   0.000000
   10       13.851388   0.000000
   11       14.930257   0.000000
   12       17.315928   0.000000
   13       18.752403   0.000000
   14       18.752867   0.000000
   15       22.765550   0.000000
   16       28.704998   0.000000
   17       28.706719   0.000000
   18       28.903814   0.000000
   19       31.145932   0.000000
   20       31.146983   0.000000
   21       33.578721   0.000000
   22       33.591386   0.000000
   23       34.256880   0.000000
   24       36.556299   0.000000
 
  0.7894737E-01  0.7894737E-01  0.7894737E-01  0.0000000E+00
    1       -7.738364   1.000000
    2        4.658177   1.000000
    3        5.337475   1.000000
    4        5.337889   1.000000
    5        8.871482   0.000000
    6        9.015707   0.000000
    7        9.017203   0.000000
    8       10.406703   0.000000
    9       14.003081   0.000000
   10       14.003878   0.000000
   11       14.668773   0.000000
   12       17.494111   0.000000
   13       18.377527   0.000000
   14       18.377960   0.000000
   15       22.367328   0.000000
   16       29.351515   0.000000
   17       29.352927   0.000000
   18       29.401010   0.000000
   19       31.182402   0.000000
   20       31.183372   0.000000
   21       33.470416   0.000000
   22       33.479197   0.000000
   23       33.861436   0.000000
   24       36.546210   0.000000
 
  0.5263158E-01  0.5263158E-01  0.5263158E-01  0.0000000E+00
    1       -7.788649   1.000000
    2        5.073105   1.000000
    3        5.408884   1.000000
    4        5.409180   1.000000
    5        8.875935   0.000000
    6        8.908224   0.000000
    7        8.909403   0.000000
    8       10.079591   0.000000
    9       14.142589   0.000000
   10       14.143468   0.000000
   11       14.464275   0.000000
   12       17.661284   0.000000
   13       18.082411   0.000000
   14       18.082866   0.000000
   15       22.052221   0.000000
   16       29.832770   0.000000
   17       29.864694   0.000000
   18       29.866574   0.000000
   19       31.289122   0.000000
   20       31.289833   0.000000
   21       33.339091   0.000000
   22       33.341317   0.000000
   23       33.503865   0.000000
   24       36.509947   0.000000
 
  0.2631579E-01  0.2631579E-01  0.2631579E-01  0.0000000E+00
    1       -7.818870   1.000000
    2        5.364050   1.000000
    3        5.454926   1.000000
    4        5.455143   1.000000
    5        8.838929   0.000000
    6        8.839696   0.000000
    7        8.840181   0.000000
    8        9.883131   0.000000
    9       14.242404   0.000000
   10       14.243458   0.000000
   11       14.335277   0.000000
   12       17.781043   0.000000
   13       17.890630   0.000000
   14       17.891786   0.000000
   15       21.846812   0.000000
   16       30.148978   0.000000
   17       30.169045   0.000000
   18       30.185292   0.000000
   19       31.461103   0.000000
   20       31.464650   0.000000