<?xml version="1.0" encoding="ISO-8859-1"?>
<modeling>
 <generator>
  <i name="program" type="string">vasp </i>
  <i name="version" type="string">5.4.4.18Apr17-6-g9f103f2a35  </i>
  <i name="subversion" type="string">(build May 24 2018 15:12:59) complex            parallel </i>
  <i name="platform" type="string">LinuxIFC </i>
  <i name="date" type="string">2018 07 07 </i>
  <i name="time" type="string">11:22:16 </i>
 </generator>
 <incar>
  <i type="string" name="SYSTEM">Si</i>
  <i type="string" name="PREC">normal</i>
  <i type="string" name="ALGO"> Normal                  !Damped ===> No</i>
  <i type="int" name="NELM">   120</i>
  <i name="EDIFF">      0.00000100</i>
  <i name="ENCUT">    400.00000000</i>
  <i type="int" name="NBANDS">    24</i>
  <i name="TIME">      0.40000000</i>
  <i type="int" name="ISMEAR">     0</i>
  <i name="SIGMA">      0.05000000</i>
  <i type="logical" name="LWAVE"> F  </i>
  <i type="logical" name="LCHARG"> F  </i>
  <i type="int" name="LORBIT">    11</i>
  <v type="int" name="KPOINT_BSE">    -1     0     0     0</v>
  <i type="int" name="NELM">   120</i>
  <i type="logical" name="LHFCALC"> T  </i>
  <i name="HFSCREEN">      0.20000000</i>
 </incar>
 <structure name="primitive_cell" >
  <crystal>
   <varray name="basis" >
    <v>       3.83958960       0.00000000       0.00000000 </v>
    <v>       1.91979480       3.32518213       0.00000000 </v>
    <v>       1.91979480       1.10839404       3.13501178 </v>
   </varray>
   <i name="volume">     40.02574468 </i>
   <varray name="rec_basis" >
    <v>       0.26044450      -0.15036770      -0.10632602 </v>
    <v>       0.00000000       0.30073541      -0.10632602 </v>
    <v>       0.00000000       0.00000000       0.31897807 </v>
   </varray>
  </crystal>
  <varray name="positions" >
   <v>       0.00000000       0.00000000       0.00000000 </v>
   <v>       0.25000000       0.25000000       0.24999999 </v>
  </varray>
 </structure>
 <varray name="primitive_index" >
  <v type="int" >        1 </v>
  <v type="int" >        2 </v>
 </varray>
 <kpoints>
  <varray name="kpointlist" >
   <v>       0.00000000       0.00000000       0.00000000 </v>
   <v>       0.16666667       0.00000000       0.00000000 </v>
   <v>       0.33333333       0.00000000       0.00000000 </v>
   <v>       0.50000000       0.00000000       0.00000000 </v>
   <v>       0.16666667       0.16666667       0.00000000 </v>
   <v>       0.33333333       0.16666667       0.00000000 </v>
   <v>       0.50000000       0.16666667       0.00000000 </v>
   <v>      -0.33333333       0.16666667       0.00000000 </v>
   <v>      -0.16666667       0.16666667       0.00000000 </v>
   <v>       0.33333333       0.33333333       0.00000000 </v>
   <v>       0.50000000       0.33333333       0.00000000 </v>
   <v>      -0.33333333       0.33333333       0.00000000 </v>
   <v>       0.50000000       0.50000000       0.00000000 </v>
   <v>       0.50000000       0.33333333       0.16666667 </v>
   <v>      -0.33333333       0.33333333       0.16666667 </v>
   <v>      -0.33333333       0.50000000       0.16666667 </v>
   <v>       0.50000000       0.50000000       0.50000000 </v>
   <v>       0.47368421       0.47368421       0.47368421 </v>
   <v>       0.44736842       0.44736842       0.44736842 </v>
   <v>       0.42105263       0.42105263       0.42105263 </v>
   <v>       0.39473684       0.39473684       0.39473684 </v>
   <v>       0.36842105       0.36842105       0.36842105 </v>
   <v>       0.34210526       0.34210526       0.34210526 </v>
   <v>       0.31578947       0.31578947       0.31578947 </v>
   <v>       0.28947368       0.28947368       0.28947368 </v>
   <v>       0.26315789       0.26315789       0.26315789 </v>
   <v>       0.23684211       0.23684211       0.23684211 </v>
   <v>       0.21052632       0.21052632       0.21052632 </v>
   <v>       0.18421053       0.18421053       0.18421053 </v>
   <v>       0.15789474       0.15789474       0.15789474 </v>
   <v>       0.13157895       0.13157895       0.13157895 </v>
   <v>       0.10526316       0.10526316       0.10526316 </v>
   <v>       0.07894737       0.07894737       0.07894737 </v>
   <v>       0.05263158       0.05263158       0.05263158 </v>
   <v>       0.02631579       0.02631579       0.02631579 </v>
   <v>       0.00000000       0.00000000       0.00000000 </v>
   <v>       0.00000000       0.00000000       0.00000000 </v>
   <v>       0.02631579       0.00000000       0.02631579 </v>
   <v>       0.05263158       0.00000000       0.05263158 </v>
   <v>       0.07894737       0.00000000       0.07894737 </v>
   <v>       0.10526316       0.00000000       0.10526316 </v>
   <v>       0.13157895       0.00000000       0.13157895 </v>
   <v>       0.15789474       0.00000000       0.15789474 </v>
   <v>       0.18421053       0.00000000       0.18421053 </v>
   <v>       0.21052632       0.00000000       0.21052632 </v>
   <v>       0.23684211       0.00000000       0.23684211 </v>
   <v>       0.26315789       0.00000000       0.26315789 </v>
   <v>       0.28947368       0.00000000       0.28947368 </v>
   <v>       0.31578947       0.00000000       0.31578947 </v>
   <v>       0.34210526       0.00000000       0.34210526 </v>
   <v>       0.36842105       0.00000000       0.36842105 </v>
   <v>       0.39473684       0.00000000       0.39473684 </v>
   <v>       0.42105263       0.00000000       0.42105263 </v>
   <v>       0.44736842       0.00000000       0.44736842 </v>
   <v>       0.47368421       0.00000000       0.47368421 </v>
   <v>       0.50000000       0.00000000       0.50000000 </v>
   <v>       0.50000000       0.00000000       0.50000000 </v>
   <v>       0.48684211       0.03289474       0.50657895 </v>
   <v>       0.47368421       0.06578947       0.51315789 </v>
   <v>       0.46052632       0.09868421       0.51973684 </v>
   <v>       0.44736842       0.13157895       0.52631579 </v>
   <v>       0.43421053       0.16447368       0.53289474 </v>
   <v>       0.42105263       0.19736842       0.53947368 </v>
   <v>       0.40789474       0.23026316       0.54605263 </v>
   <v>       0.39473684       0.26315789       0.55263158 </v>
   <v>       0.38157895       0.29605263       0.55921053 </v>
   <v>       0.36842105       0.32894737       0.56578947 </v>
   <v>       0.35526316       0.36184211       0.57236842 </v>
   <v>       0.34210526       0.39473684       0.57894737 </v>
   <v>       0.32894737       0.42763158       0.58552632 </v>
   <v>       0.31578947       0.46052632       0.59210526 </v>
   <v>       0.30263158       0.49342105       0.59868421 </v>
   <v>       0.28947368       0.52631579       0.60526316 </v>
   <v>       0.27631579       0.55921053       0.61184211 </v>
   <v>       0.26315789       0.59210526       0.61842105 </v>
   <v>       0.25000000       0.62500000       0.62500000 </v>
  </varray>
  <varray name="weights" >
   <v>       0.00462963 </v>
   <v>       0.03703704 </v>
   <v>       0.03703704 </v>
   <v>       0.01851852 </v>
   <v>       0.02777778 </v>
   <v>       0.11111111 </v>
   <v>       0.11111111 </v>
   <v>       0.11111111 </v>
   <v>       0.05555556 </v>
   <v>       0.02777778 </v>
   <v>       0.11111111 </v>
   <v>       0.05555556 </v>
   <v>       0.01388889 </v>
   <v>       0.11111111 </v>
   <v>       0.11111111 </v>
   <v>       0.05555556 </v>
   <v>       0.00000000 </v>
   <v>       0.00000000 </v>
   <v>       0.00000000 </v>
   <v>       0.00000000 </v>
   <v>       0.00000000 </v>
   <v>       0.00000000 </v>
   <v>       0.00000000 </v>
   <v>       0.00000000 </v>
   <v>       0.00000000 </v>
   <v>       0.00000000 </v>
   <v>       0.00000000 </v>
   <v>       0.00000000 </v>
   <v>       0.00000000 </v>
   <v>       0.00000000 </v>
   <v>       0.00000000 </v>
   <v>       0.00000000 </v>
   <v>       0.00000000 </v>
   <v>       0.00000000 </v>
   <v>       0.00000000 </v>
   <v>       0.00000000 </v>
   <v>       0.00000000 </v>
   <v>       0.00000000 </v>
   <v>       0.00000000 </v>
   <v>       0.00000000 </v>
   <v>       0.00000000 </v>
   <v>       0.00000000 </v>
   <v>       0.00000000 </v>
   <v>       0.00000000 </v>
   <v>       0.00000000 </v>
   <v>       0.00000000 </v>
   <v>       0.00000000 </v>
   <v>       0.00000000 </v>
   <v>       0.00000000 </v>
   <v>       0.00000000 </v>
   <v>       0.00000000 </v>
   <v>       0.00000000 </v>
   <v>       0.00000000 </v>
   <v>       0.00000000 </v>
   <v>       0.00000000 </v>
   <v>       0.00000000 </v>
   <v>       0.00000000 </v>
   <v>       0.00000000 </v>
   <v>       0.00000000 </v>
   <v>       0.00000000 </v>
   <v>       0.00000000 </v>
   <v>       0.00000000 </v>
   <v>       0.00000000 </v>
   <v>       0.00000000 </v>
   <v>       0.00000000 </v>
   <v>       0.00000000 </v>
   <v>       0.00000000 </v>
   <v>       0.00000000 </v>
   <v>       0.00000000 </v>
   <v>       0.00000000 </v>
   <v>       0.00000000 </v>
   <v>       0.00000000 </v>
   <v>       0.00000000 </v>
   <v>       0.00000000 </v>
   <v>       0.00000000 </v>
   <v>       0.00000000 </v>
  </varray>
 </kpoints>
 <parameters>
  <separator name="general" >
   <i type="string" name="SYSTEM">Si</i>
   <i type="logical" name="LCOMPAT"> F  </i>
  </separator>
  <separator name="electronic" >
   <i type="string" name="PREC">normal</i>
   <i name="ENMAX">    400.00000000</i>
   <i name="ENAUG">    322.06900000</i>
   <i name="EDIFF">      0.00000100</i>
   <i type="int" name="IALGO">    38</i>
   <i type="int" name="IWAVPR">    10</i>
   <i type="int" name="NBANDS">    24</i>
   <i name="NELECT">      8.00000000</i>
   <i type="int" name="TURBO">     0</i>
   <i type="int" name="IRESTART">     0</i>
   <i type="int" name="NREBOOT">     0</i>
   <i type="int" name="NMIN">     0</i>
   <i name="EREF">      0.00000000</i>
   <separator name="electronic smearing" >
    <i type="int" name="ISMEAR">     0</i>
    <i name="SIGMA">      0.05000000</i>
    <i name="KSPACING">      0.50000000</i>
    <i type="logical" name="KGAMMA"> T  </i>
   </separator>
   <separator name="electronic projectors" >
    <i type="logical" name="LREAL"> F  </i>
    <v name="ROPT">      0.00000000</v>
    <i type="int" name="LMAXPAW">  -100</i>
    <i type="int" name="LMAXMIX">     2</i>
    <i type="logical" name="NLSPLINE"> F  </i>
   </separator>
   <separator name="electronic startup" >
    <i type="int" name="ISTART">     1</i>
    <i type="int" name="ICHARG">     0</i>
    <i type="int" name="INIWAV">     1</i>
   </separator>
   <separator name="electronic spin" >
    <i type="int" name="ISPIN">     1</i>
    <i type="logical" name="LNONCOLLINEAR"> F  </i>
    <v name="MAGMOM">      1.00000000      1.00000000</v>
    <i name="NUPDOWN">     -1.00000000</i>
    <i type="logical" name="LSORBIT"> F  </i>
    <v name="SAXIS">      0.00000000      0.00000000      1.00000000</v>
    <i type="logical" name="LSPIRAL"> F  </i>
    <v name="QSPIRAL">      0.00000000      0.00000000      0.00000000</v>
    <i type="logical" name="LZEROZ"> F  </i>
   </separator>
   <separator name="electronic exchange-correlation" >
    <i type="logical" name="LASPH"> F  </i>
    <i type="logical" name="LMETAGGA"> F  </i>
   </separator>
   <separator name="electronic convergence" >
    <i type="int" name="NELM">   120</i>
    <i type="int" name="NELMDL">     0</i>
    <i type="int" name="NELMIN">     2</i>
    <i name="ENINI">    400.00000000</i>
    <separator name="electronic convergence detail" >
     <i type="logical" name="LDIAG"> T  </i>
     <i type="logical" name="LSUBROT"> F  </i>
     <i name="WEIMIN">      0.00000000</i>
     <i name="EBREAK">      0.00000001</i>
     <i name="DEPER">      0.30000000</i>
     <i type="int" name="NRMM">     4</i>
     <i name="TIME">      0.40000000</i>
    </separator>
   </separator>
   <separator name="electronic mixer" >
    <i name="AMIX">      0.40000000</i>
    <i name="BMIX">      1.00000000</i>
    <i name="AMIN">      0.10000000</i>
    <i name="AMIX_MAG">      1.60000000</i>
    <i name="BMIX_MAG">      1.00000000</i>
    <separator name="electronic mixer details" >
     <i type="int" name="IMIX">     1</i>
     <i type="logical" name="MIXFIRST"> F  </i>
     <i type="int" name="MAXMIX">   -45</i>
     <i name="WC">    100.00000000</i>
     <i type="int" name="INIMIX">     1</i>
     <i type="int" name="MIXPRE">     1</i>
     <i type="int" name="MREMOVE">     5</i>
    </separator>
   </separator>
   <separator name="electronic dipolcorrection" >
    <i type="logical" name="LDIPOL"> F  </i>
    <i type="logical" name="LMONO"> F  </i>
    <i type="int" name="IDIPOL">     0</i>
    <i name="EPSILON">      1.00000000</i>
    <v name="DIPOL">   -100.00000000   -100.00000000   -100.00000000</v>
    <i name="EFIELD">      0.00000000</i>
   </separator>
  </separator>
  <separator name="grids" >
   <i type="int" name="NGX">    20</i>
   <i type="int" name="NGY">    20</i>
   <i type="int" name="NGZ">    20</i>
   <i type="int" name="NGXF">    40</i>
   <i type="int" name="NGYF">    40</i>
   <i type="int" name="NGZF">    40</i>
   <i type="logical" name="ADDGRID"> F  </i>
  </separator>
  <separator name="ionic" >
   <i type="int" name="NSW">     0</i>
   <i type="int" name="IBRION">    -1</i>
   <i type="int" name="MDALGO">     0</i>
   <i type="int" name="ISIF">     0</i>
   <i name="PSTRESS">      0.00000000</i>
   <i name="EDIFFG">      0.00001000</i>
   <i type="int" name="NFREE">     0</i>
   <i name="POTIM">      0.50000000</i>
   <i name="SMASS">     -3.00000000</i>
   <i name="SCALEE">      1.00000000</i>
  </separator>
  <separator name="ionic md" >
   <i name="TEBEG">      0.00010000</i>
   <i name="TEEND">      0.00010000</i>
   <i type="int" name="NBLOCK">     1</i>
   <i type="int" name="KBLOCK">     1</i>
   <i type="int" name="NPACO">   256</i>
   <i name="APACO">     16.00000000</i>
  </separator>
  <separator name="symmetry" >
   <i type="int" name="ISYM">     3</i>
   <i name="SYMPREC">      0.00001000</i>
  </separator>
  <separator name="dos" >
   <i type="int" name="LORBIT">    11</i>
   <v name="RWIGS">     -1.00000000</v>
   <i type="int" name="NEDOS">   301</i>
   <i name="EMIN">     10.00000000</i>
   <i name="EMAX">    -10.00000000</i>
   <i name="EFERMI">      0.00000000</i>
  </separator>
  <separator name="writing" >
   <i type="int" name="NWRITE">     2</i>
   <i type="logical" name="LWAVE"> F  </i>
   <i type="logical" name="LDOWNSAMPLE"> F  </i>
   <i type="logical" name="LCHARG"> F  </i>
   <i type="logical" name="LPARD"> F  </i>
   <i type="logical" name="LVTOT"> F  </i>
   <i type="logical" name="LVHAR"> F  </i>
   <i type="logical" name="LELF"> F  </i>
   <i type="logical" name="LOPTICS"> F  </i>
   <v name="STM">      0.00000000      0.00000000      0.00000000      0.00000000      0.00000000      0.00000000      0.00000000</v>
  </separator>
  <separator name="performance" >
   <i type="int" name="NPAR">     6</i>
   <i type="int" name="NSIM">     4</i>
   <i type="int" name="NBLK">    -1</i>
   <i type="logical" name="LPLANE"> T  </i>
   <i type="logical" name="LSCALAPACK"> T  </i>
   <i type="logical" name="LSCAAWARE"> F  </i>
   <i type="logical" name="LSCALU"> F  </i>
   <i type="logical" name="LASYNC"> F  </i>
   <i type="logical" name="LORBITALREAL"> F  </i>
  </separator>
  <separator name="miscellaneous" >
   <i type="int" name="IDIOT">     3</i>
   <i type="int" name="ISPECIAL">     0</i>
   <i type="logical" name="LMUSIC"> F  </i>
   <v name="POMASS">     28.08500000</v>
   <v name="DARWINR">      0.00000000</v>
   <v name="DARWINV">      1.00000000</v>
   <i type="logical" name="LCORR"> T  </i>
  </separator>
  <i type="logical" name="GGA_COMPAT"> T  </i>
  <i type="logical" name="LBERRY"> F  </i>
  <i type="int" name="ICORELEVEL">     0</i>
  <i type="logical" name="LDAU"> F  </i>
  <i type="int" name="I_CONSTRAINED_M">     0</i>
  <separator name="electronic exchange-correlation" >
   <i type="string" name="GGA">--</i>
   <i type="int" name="VOSKOWN">     0</i>
   <i type="logical" name="LHFCALC"> T  </i>
   <i type="string" name="PRECFOCK">normal</i>
   <i type="logical" name="LSYMGRAD"> F  </i>
   <i type="logical" name="LHFONE"> F  </i>
   <i type="logical" name="LRHFCALC"> F  </i>
   <i type="logical" name="LTHOMAS"> F  </i>
   <i type="logical" name="LMODELHF"> F  </i>
   <i name="ENCUT4O">     -1.00000000</i>
   <i type="int" name="EXXOEP">     0</i>
   <i type="int" name="FOURORBIT">     0</i>
   <i name="AEXX">      0.25000000</i>
   <i name="HFALPHA">     -1.00000000</i>
   <i name="MCALPHA">      0.00000000</i>
   <i name="ALDAX">      0.75000000</i>
   <i name="AGGAX">      0.75000000</i>
   <i name="ALDAC">      1.00000000</i>
   <i name="AGGAC">      1.00000000</i>
   <i type="int" name="NKREDX">     1</i>
   <i type="int" name="NKREDY">     1</i>
   <i type="int" name="NKREDZ">     1</i>
   <i type="logical" name="SHIFTRED"> F  </i>
   <i type="logical" name="ODDONLY"> F  </i>
   <i type="logical" name="EVENONLY"> F  </i>
   <i type="int" name="LMAXFOCK">     4</i>
   <i type="int" name="NMAXFOCKAE">     1</i>
   <i type="logical" name="LFOCKAEDFT"> F  </i>
   <i name="HFSCREEN">      0.20000000</i>
   <i name="HFSCREENC">      0.20000000</i>
   <i type="int" name="NBANDSGWLOW">     1</i>
  </separator>
  <separator name="vdW DFT" >
   <i type="logical" name="LUSE_VDW"> F  </i>
   <i name="Zab_VDW">     -0.84910000</i>
   <i name="PARAM1">      0.12340000</i>
   <i name="PARAM2">      1.00000000</i>
   <i name="PARAM3">      0.00000000</i>
  </separator>
  <separator name="model GW" >
   <i type="int" name="MODEL_GW">     0</i>
   <i name="MODEL_EPS0">     12.00772340</i>
   <i name="MODEL_ALPHA">      1.00000000</i>
  </separator>
  <separator name="linear response parameters" >
   <i type="logical" name="LEPSILON"> F  </i>
   <i type="logical" name="LRPA"> F  </i>
   <i type="logical" name="LNABLA"> F  </i>
   <i type="logical" name="LVEL"> F  </i>
   <i type="int" name="KINTER">     0</i>
   <i name="CSHIFT">      0.10000000</i>
   <i name="OMEGAMAX">     -1.00000000</i>
   <i name="DEG_THRESHOLD">      0.00200000</i>
   <i name="RTIME">     -0.10000000</i>
   <i name="WPLASMAI">      0.00000000</i>
   <v name="DFIELD">      0.00000000      0.00000000      0.00000000</v>
   <v name="WPLASMA">      0.00000000      0.00000000      0.00000000      0.00000000      0.00000000      0.00000000      0.00000000      0.00000000      0.00000000</v>
  </separator>
  <separator name="orbital magnetization" >
   <i type="logical" name="NUCIND"> F  </i>
   <v name="MAGPOS">      0.00000000      0.00000000      0.00000000</v>
   <i type="logical" name="LNICSALL"> T  </i>
   <i type="logical" name="ORBITALMAG"> F  </i>
   <i type="logical" name="LMAGBLOCH"> F  </i>
   <i type="logical" name="LCHIMAG"> F  </i>
   <i type="logical" name="LGAUGE"> T  </i>
   <i type="int" name="MAGATOM">     0</i>
   <v name="MAGDIPOL">      0.00000000      0.00000000      0.00000000</v>
   <v name="AVECCONST">      0.00000000      0.00000000      0.00000000</v>
  </separator>
  <separator name="response functions" >
   <i type="logical" name="LADDER"> F  </i>
   <i type="logical" name="LRPAFORCE"> F  </i>
   <i type="logical" name="LFXC"> F  </i>
   <i type="logical" name="LHARTREE"> T  </i>
   <i type="int" name="IBSE">     0</i>
   <v type="int" name="KPOINT">    -1     0     0     0</v>
   <i type="logical" name="LTCTE"> F  </i>
   <i type="logical" name="LTETE"> F  </i>
   <i type="logical" name="LTRIPLET"> F  </i>
   <i type="logical" name="LFXCEPS"> F  </i>
   <i type="logical" name="LFXHEG"> F  </i>
   <i type="int" name="NATURALO">     2</i>
   <i type="logical" name="L2ORDER"> F  </i>
   <i type="logical" name="LMP2LT"> F  </i>
   <i type="logical" name="LUSEW"> F  </i>
   <i name="ENCUTGW">     -2.00000000</i>
   <i name="ENCUTGWSOFT">     -2.00000000</i>
   <i name="ENCUTLF">     -1.00000000</i>
   <i type="int" name="LMAXMP2">    -1</i>
   <i name="SCISSOR">      0.00000000</i>
   <i type="int" name="NOMEGA">     0</i>
   <i type="int" name="NOMEGAR">     0</i>
   <i type="int" name="NBANDSGW">    -1</i>
   <i type="int" name="NBANDSO">    -1</i>
   <i type="int" name="NBANDSV">    -1</i>
   <i type="int" name="NELM">   120</i>
   <i type="int" name="NELMHF">     1</i>
   <i type="int" name="DIM">     3</i>
   <i type="int" name="ANTIRES">     0</i>
   <i name="OMEGAMAX">    -30.00000000</i>
   <i name="OMEGAMIN">    -30.00000000</i>
   <i name="OMEGATL">   -200.00000000</i>
   <i type="int" name="OMEGAGRID">   140</i>
   <i name="CSHIFT">     -0.10000000</i>
   <i type="logical" name="SELFENERGY"> F  </i>
   <i type="logical" name="LSPECTRAL"> F  </i>
   <i type="logical" name="LSPECTRALGW"> F  </i>
   <i type="logical" name="LSINGLES"> F  </i>
   <i type="logical" name="LFERMIGW"> F  </i>
   <i type="logical" name="ODDONLYGW"> F  </i>
   <i type="logical" name="EVENONLYGW"> F  </i>
   <i type="int" name="NKREDLFX">     1</i>
   <i type="int" name="NKREDLFY">     1</i>
   <i type="int" name="NKREDLFZ">     1</i>
   <i type="int" name="MAXMEM">  2800</i>
   <i type="int" name="TELESCOPE">     0</i>
   <i type="int" name="TAUPAR">     1</i>
   <i type="int" name="OMEGAPAR">    -1</i>
   <i name="LAMBDA">      1.00000000</i>
  </separator>
  <separator name="External order field" >
   <i name="OFIELD_KAPPA">      0.00000000</i>
   <v name="OFIELD_K">      0.00000000      0.00000000      0.00000000</v>
   <i name="OFIELD_Q6_NEAR">      0.00000000</i>
   <i name="OFIELD_Q6_FAR">      0.00000000</i>
   <i name="OFIELD_A">      0.00000000</i>
  </separator>
 </parameters>
 <atominfo>
  <atoms>       2 </atoms>
  <types>       1 </types>
  <array name="atoms" >
   <dimension dim="1">ion</dimension>
   <field type="string">element</field>
   <field type="int">atomtype</field>
   <set>
    <rc><c>Si</c><c>   1</c></rc>
    <rc><c>Si</c><c>   1</c></rc>
   </set>
  </array>
  <array name="atomtypes" >
   <dimension dim="1">type</dimension>
   <field type="int">atomspertype</field>
   <field type="string">element</field>
   <field>mass</field>
   <field>valence</field>
   <field type="string">pseudopotential</field>
   <set>
    <rc><c>   2</c><c>Si</c><c>     28.08500000</c><c>      4.00000000</c><c>  PAW_PBE Si 05Jan2001                  </c></rc>
   </set>
  </array>
 </atominfo>
 <structure name="initialpos" >
  <crystal>
   <varray name="basis" >
    <v>       3.83958960       0.00000000       0.00000000 </v>
    <v>       1.91979480       3.32518213       0.00000000 </v>
    <v>       1.91979480       1.10839404       3.13501178 </v>
   </varray>
   <i name="volume">     40.02574468 </i>
   <varray name="rec_basis" >
    <v>       0.26044450      -0.15036770      -0.10632602 </v>
    <v>       0.00000000       0.30073541      -0.10632602 </v>
    <v>       0.00000000       0.00000000       0.31897807 </v>
   </varray>
  </crystal>
  <varray name="positions" >
   <v>       0.00000000       0.00000000       0.00000000 </v>
   <v>       0.25000000       0.25000000       0.24999999 </v>
  </varray>
 </structure>
 <calculation>
  <scstep>
   <time name="dav">  170.17  170.51</time>
   <time name="total">  170.35  170.75</time>
   <energy>
    <i name="alphaZ">      3.36414786 </i>
    <i name="ewald">   -228.56353838 </i>
    <i name="hartreedc">    -15.02018177 </i>
    <i name="XCdc">    -14.36635532 </i>
    <i name="pawpsdc">   1694.84428454 </i>
    <i name="pawaedc">  -1667.20199281 </i>
    <i name="eentropy">     -0.00000000 </i>
    <i name="bandstr">     -0.91578025 </i>
    <i name="atom">    203.99733562 </i>
    <i name="e_fr_energy">    -12.56729213 </i>
    <i name="e_wo_entrp">    -12.56729213 </i>
    <i name="e_0_energy">    -12.56729213 </i>
   </energy>
  </scstep>
  <scstep>
   <time name="dav">  149.49  149.76</time>
   <time name="total">  149.65  149.95</time>
   <energy>
    <i name="alphaZ">      3.36414786 </i>
    <i name="ewald">   -228.56353838 </i>
    <i name="hartreedc">    -15.02024658 </i>
    <i name="XCdc">    -14.36634612 </i>
    <i name="pawpsdc">   1694.88478939 </i>
    <i name="pawaedc">  -1667.24249382 </i>
    <i name="eentropy">     -0.00000000 </i>
    <i name="bandstr">     -0.91581927 </i>
    <i name="atom">    203.99733562 </i>
    <i name="e_fr_energy">    -12.56729213 </i>
    <i name="e_wo_entrp">    -12.56729213 </i>
    <i name="e_0_energy">    -12.56729213 </i>
   </energy>
  </scstep>
  <structure>
   <crystal>
    <varray name="basis" >
     <v>       3.83958960       0.00000000       0.00000000 </v>
     <v>       1.91979480       3.32518213       0.00000000 </v>
     <v>       1.91979480       1.10839404       3.13501178 </v>
    </varray>
    <i name="volume">     40.02574468 </i>
    <varray name="rec_basis" >
     <v>       0.26044450      -0.15036770      -0.10632602 </v>
     <v>       0.00000000       0.30073541      -0.10632602 </v>
     <v>       0.00000000       0.00000000       0.31897807 </v>
    </varray>
   </crystal>
   <varray name="positions" >
    <v>       0.00000000       0.00000000       0.00000000 </v>
    <v>       0.25000000       0.25000000       0.24999999 </v>
   </varray>
  </structure>
  <varray name="forces" >
   <v>       0.00000000      -0.00000000      -0.00000000 </v>
   <v>      -0.00000000       0.00000000       0.00000000 </v>
  </varray>
  <energy>
   <i name="e_fr_energy">    -12.56729213 </i>
   <i name="e_wo_entrp">    -12.56729213 </i>
   <i name="e_0_energy">     -0.00000000 </i>
  </energy>
  <time name="totalsc">  335.39  336.15</time>
  <eigenvalues>
   <array>
    <dimension dim="1">band</dimension>
    <dimension dim="2">kpoint</dimension>
    <dimension dim="3">spin</dimension>
    <field>eigene</field>
    <field>occ</field>
    <set>
     <set comment="spin 1">
      <set comment="kpoint 1">
       <r>   -7.8290    1.0000 </r>
       <r>    5.4707    1.0000 </r>
       <r>    5.4707    1.0000 </r>
       <r>    5.4707    1.0000 </r>
       <r>    8.8144    0.0000 </r>
       <r>    8.8144    0.0000 </r>
       <r>    8.8144    0.0000 </r>
       <r>    9.8187    0.0000 </r>
       <r>   14.2789    0.0000 </r>
       <r>   14.2789    0.0000 </r>
       <r>   14.2886    0.0000 </r>
       <r>   17.8233    0.0000 </r>
       <r>   17.8233    0.0000 </r>
       <r>   17.8233    0.0000 </r>
       <r>   21.7746    0.0000 </r>
       <r>   30.2596    0.0000 </r>
       <r>   30.2596    0.0000 </r>
       <r>   30.2596    0.0000 </r>
       <r>   31.5586    0.0000 </r>
       <r>   31.5586    0.0000 </r>
       <r>   33.1236    0.0000 </r>
       <r>   33.1236    0.0000 </r>
       <r>   33.1236    0.0000 </r>
       <r>   36.2973    0.0000 </r>
      </set>
      <set comment="kpoint 2">
       <r>   -7.4283    1.0000 </r>
       <r>    2.9108    1.0000 </r>
       <r>    4.9969    1.0000 </r>
       <r>    4.9969    1.0000 </r>
       <r>    8.6018    0.0000 </r>
       <r>    9.5030    0.0000 </r>
       <r>    9.5030    0.0000 </r>
       <r>   11.9511    0.0000 </r>
       <r>   13.5740    0.0000 </r>
       <r>   13.5741    0.0000 </r>
       <r>   15.5102    0.0000 </r>
       <r>   17.1638    0.0000 </r>
       <r>   19.8349    0.0000 </r>
       <r>   19.8349    0.0000 </r>
       <r>   23.8906    0.0000 </r>
       <r>   27.0032    0.0000 </r>
       <r>   27.0032    0.0000 </r>
       <r>   27.6576    0.0000 </r>
       <r>   31.1893    0.0000 </r>
       <r>   31.1893    0.0000 </r>
       <r>   33.7801    0.0000 </r>
       <r>   33.7801    0.0000 </r>
       <r>   35.1603    0.0000 </r>
       <r>   36.6356    0.0000 </r>
      </set>
      <set comment="kpoint 3">
       <r>   -6.2992    1.0000 </r>
       <r>   -0.4082    1.0000 </r>
       <r>    4.3843    1.0000 </r>
       <r>    4.3843    1.0000 </r>
       <r>    7.9743    0.0000 </r>
       <r>    9.8138    0.0000 </r>
       <r>    9.8138    0.0000 </r>
       <r>   14.3525    0.0000 </r>
       <r>   14.5529    0.0000 </r>
       <r>   14.5529    0.0000 </r>
       <r>   15.6720    0.0000 </r>
       <r>   20.3597    0.0000 </r>
       <r>   21.5837    0.0000 </r>
       <r>   21.5838    0.0000 </r>
       <r>   23.8135    0.0000 </r>
       <r>   24.4435    0.0000 </r>
       <r>   24.4435    0.0000 </r>
       <r>   28.4929    0.0000 </r>
       <r>   31.3482    0.0000 </r>
       <r>   31.3482    0.0000 </r>
       <r>   32.4066    0.0000 </r>
       <r>   34.1729    0.0000 </r>
       <r>   34.1729    0.0000 </r>
       <r>   36.3860    0.0000 </r>
      </set>
      <set comment="kpoint 4">
       <r>   -5.2342    1.0000 </r>
       <r>   -2.2513    1.0000 </r>
       <r>    4.1578    1.0000 </r>
       <r>    4.1578    1.0000 </r>
       <r>    7.7346    0.0000 </r>
       <r>    9.6278    0.0000 </r>
       <r>    9.6278    0.0000 </r>
       <r>   14.1108    0.0000 </r>
       <r>   17.2985    0.0000 </r>
       <r>   17.2985    0.0000 </r>
       <r>   18.0417    0.0000 </r>
       <r>   18.1179    0.0000 </r>
       <r>   18.1179    0.0000 </r>
       <r>   19.9547    0.0000 </r>
       <r>   26.4247    0.0000 </r>
       <r>   26.8501    0.0000 </r>
       <r>   28.5382    0.0000 </r>
       <r>   28.5382    0.0000 </r>
       <r>   28.9747    0.0000 </r>
       <r>   28.9747    0.0000 </r>
       <r>   32.5156    0.0000 </r>
       <r>   33.5186    0.0000 </r>
       <r>   33.5187    0.0000 </r>
       <r>   34.8803    0.0000 </r>
      </set>
      <set comment="kpoint 5">
       <r>   -7.2919    1.0000 </r>
       <r>    3.2932    1.0000 </r>
       <r>    4.1968    1.0000 </r>
       <r>    4.1968    1.0000 </r>
       <r>    7.8612    0.0000 </r>
       <r>   10.6793    0.0000 </r>
       <r>   10.7165    0.0000 </r>
       <r>   10.7165    0.0000 </r>
       <r>   13.1263    0.0000 </r>
       <r>   14.8525    0.0000 </r>
       <r>   16.2163    0.0000 </r>
       <r>   18.7045    0.0000 </r>
       <r>   18.7045    0.0000 </r>
       <r>   19.2537    0.0000 </r>
       <r>   25.0427    0.0000 </r>
       <r>   26.5097    0.0000 </r>
       <r>   26.5097    0.0000 </r>
       <r>   27.7881    0.0000 </r>
       <r>   29.1416    0.0000 </r>
       <r>   30.8930    0.0000 </r>
       <r>   34.0539    0.0000 </r>
       <r>   34.4866    0.0000 </r>
       <r>   34.4866    0.0000 </r>
       <r>   39.1022    0.0000 </r>
      </set>
      <set comment="kpoint 6">
       <r>   -6.3854    1.0000 </r>
       <r>    0.6016    1.0000 </r>
       <r>    3.3448    1.0000 </r>
       <r>    3.5748    1.0000 </r>
       <r>    8.1207    0.0000 </r>
       <r>   10.4294    0.0000 </r>
       <r>   10.8605    0.0000 </r>
       <r>   11.5027    0.0000 </r>
       <r>   15.7149    0.0000 </r>
       <r>   15.8624    0.0000 </r>
       <r>   16.9480    0.0000 </r>
       <r>   19.5202    0.0000 </r>
       <r>   20.6229    0.0000 </r>
       <r>   22.2124    0.0000 </r>
       <r>   22.7689    0.0000 </r>
       <r>   23.7909    0.0000 </r>
       <r>   26.9677    0.0000 </r>
       <r>   27.7296    0.0000 </r>
       <r>   28.8033    0.0000 </r>
       <r>   30.3217    0.0000 </r>
       <r>   32.6873    0.0000 </r>
       <r>   33.7772    0.0000 </r>
       <r>   34.7942    0.0000 </r>
       <r>   36.6267    0.0000 </r>
      </set>
      <set comment="kpoint 7">
       <r>   -5.0563    1.0000 </r>
       <r>   -1.8412    1.0000 </r>
       <r>    2.4741    1.0000 </r>
       <r>    3.5319    1.0000 </r>
       <r>    8.2230    0.0000 </r>
       <r>   10.4422    0.0000 </r>
       <r>   11.0058    0.0000 </r>
       <r>   12.9255    0.0000 </r>
       <r>   15.9845    0.0000 </r>
       <r>   17.2168    0.0000 </r>
       <r>   18.4596    0.0000 </r>
       <r>   18.6480    0.0000 </r>
       <r>   19.5625    0.0000 </r>
       <r>   23.1197    0.0000 </r>
       <r>   24.9240    0.0000 </r>
       <r>   25.9121    0.0000 </r>
       <r>   27.0465    0.0000 </r>
       <r>   27.6943    0.0000 </r>
       <r>   28.2323    0.0000 </r>
       <r>   29.8998    0.0000 </r>
       <r>   31.0147    0.0000 </r>
       <r>   33.2107    0.0000 </r>
       <r>   34.0689    0.0000 </r>
       <r>   34.2720    0.0000 </r>
      </set>
      <set comment="kpoint 8">
       <r>   -5.4862    1.0000 </r>
       <r>   -1.1667    1.0000 </r>
       <r>    2.1723    1.0000 </r>
       <r>    4.0588    1.0000 </r>
       <r>    8.6856    0.0000 </r>
       <r>   10.4231    0.0000 </r>
       <r>   10.6058    0.0000 </r>
       <r>   13.8474    0.0000 </r>
       <r>   13.8535    0.0000 </r>
       <r>   16.0425    0.0000 </r>
       <r>   18.0838    0.0000 </r>
       <r>   19.7024    0.0000 </r>
       <r>   21.6899    0.0000 </r>
       <r>   22.3972    0.0000 </r>
       <r>   23.2558    0.0000 </r>
       <r>   24.8218    0.0000 </r>
       <r>   27.0838    0.0000 </r>
       <r>   28.9944    0.0000 </r>
       <r>   29.2312    0.0000 </r>
       <r>   30.0006    0.0000 </r>
       <r>   31.6995    0.0000 </r>
       <r>   31.8216    0.0000 </r>
       <r>   34.5509    0.0000 </r>
       <r>   34.7850    0.0000 </r>
      </set>
      <set comment="kpoint 9">
       <r>   -6.7748    1.0000 </r>
       <r>    1.4076    1.0000 </r>
       <r>    2.8856    1.0000 </r>
       <r>    4.8608    1.0000 </r>
       <r>    9.3611    0.0000 </r>
       <r>    9.9094    0.0000 </r>
       <r>   10.0968    0.0000 </r>
       <r>   12.1195    0.0000 </r>
       <r>   12.5057    0.0000 </r>
       <r>   16.1067    0.0000 </r>
       <r>   17.0392    0.0000 </r>
       <r>   18.0810    0.0000 </r>
       <r>   20.0878    0.0000 </r>
       <r>   22.4249    0.0000 </r>
       <r>   22.9399    0.0000 </r>
       <r>   25.7079    0.0000 </r>
       <r>   27.3898    0.0000 </r>
       <r>   27.8816    0.0000 </r>
       <r>   27.9094    0.0000 </r>
       <r>   29.7543    0.0000 </r>
       <r>   33.9661    0.0000 </r>
       <r>   34.1738    0.0000 </r>
       <r>   35.5148    0.0000 </r>
       <r>   36.8290    0.0000 </r>
      </set>
      <set comment="kpoint 10">
       <r>   -5.7117    1.0000 </r>
       <r>   -0.0466    1.0000 </r>
       <r>    2.8233    1.0000 </r>
       <r>    2.8233    1.0000 </r>
       <r>    6.7966    0.0000 </r>
       <r>    8.1527    0.0000 </r>
       <r>   13.8823    0.0000 </r>
       <r>   13.8823    0.0000 </r>
       <r>   16.5552    0.0000 </r>
       <r>   16.6204    0.0000 </r>
       <r>   19.7554    0.0000 </r>
       <r>   20.3911    0.0000 </r>
       <r>   20.3911    0.0000 </r>
       <r>   21.7486    0.0000 </r>
       <r>   23.1014    0.0000 </r>
       <r>   23.1014    0.0000 </r>
       <r>   23.1450    0.0000 </r>
       <r>   26.2040    0.0000 </r>
       <r>   30.1251    0.0000 </r>
       <r>   31.6358    0.0000 </r>
       <r>   32.5534    0.0000 </r>
       <r>   32.5534    0.0000 </r>
       <r>   33.5834    0.0000 </r>
       <r>   34.5407    0.0000 </r>
      </set>
      <set comment="kpoint 11">
       <r>   -4.4114    1.0000 </r>
       <r>   -1.7989    1.0000 </r>
       <r>    1.5129    1.0000 </r>
       <r>    2.6668    1.0000 </r>
       <r>    7.1577    0.0000 </r>
       <r>    8.9172    0.0000 </r>
       <r>   14.0594    0.0000 </r>
       <r>   14.1005    0.0000 </r>
       <r>   17.4190    0.0000 </r>
       <r>   17.4624    0.0000 </r>
       <r>   19.1724    0.0000 </r>
       <r>   19.8256    0.0000 </r>
       <r>   21.3431    0.0000 </r>
       <r>   22.7286    0.0000 </r>
       <r>   22.9546    0.0000 </r>
       <r>   25.3829    0.0000 </r>
       <r>   25.7362    0.0000 </r>
       <r>   26.3018    0.0000 </r>
       <r>   27.6337    0.0000 </r>
       <r>   29.7785    0.0000 </r>
       <r>   30.1415    0.0000 </r>
       <r>   30.6496    0.0000 </r>
       <r>   31.6372    0.0000 </r>
       <r>   33.7094    0.0000 </r>
      </set>
      <set comment="kpoint 12">
       <r>   -4.1910    1.0000 </r>
       <r>   -2.0291    1.0000 </r>
       <r>    0.6461    1.0000 </r>
       <r>    3.1597    1.0000 </r>
       <r>    7.7066    0.0000 </r>
       <r>   12.1828    0.0000 </r>
       <r>   13.0648    0.0000 </r>
       <r>   13.6694    0.0000 </r>
       <r>   14.0760    0.0000 </r>
       <r>   14.1736    0.0000 </r>
       <r>   21.0501    0.0000 </r>
       <r>   21.5615    0.0000 </r>
       <r>   22.7334    0.0000 </r>
       <r>   22.8132    0.0000 </r>
       <r>   23.6931    0.0000 </r>
       <r>   24.6910    0.0000 </r>
       <r>   25.5371    0.0000 </r>
       <r>   26.8140    0.0000 </r>
       <r>   29.3159    0.0000 </r>
       <r>   29.5270    0.0000 </r>
       <r>   29.7447    0.0000 </r>
       <r>   30.8928    0.0000 </r>
       <r>   33.5151    0.0000 </r>
       <r>   33.8349    0.0000 </r>
      </set>
      <set comment="kpoint 13">
       <r>   -3.2058    1.0000 </r>
       <r>   -3.2058    1.0000 </r>
       <r>    2.3320    1.0000 </r>
       <r>    2.3320    1.0000 </r>
       <r>    6.7781    0.0000 </r>
       <r>    6.7781    0.0000 </r>
       <r>   16.9873    0.0000 </r>
       <r>   16.9873    0.0000 </r>
       <r>   17.7291    0.0000 </r>
       <r>   17.7291    0.0000 </r>
       <r>   19.3426    0.0000 </r>
       <r>   19.3426    0.0000 </r>
       <r>   19.9318    0.0000 </r>
       <r>   19.9318    0.0000 </r>
       <r>   25.7054    0.0000 </r>
       <r>   25.7054    0.0000 </r>
       <r>   26.4670    0.0000 </r>
       <r>   26.4670    0.0000 </r>
       <r>   27.0873    0.0000 </r>
       <r>   27.0873    0.0000 </r>
       <r>   28.3300    0.0000 </r>
       <r>   28.3300    0.0000 </r>
       <r>   32.8598    0.0000 </r>
       <r>   32.8598    0.0000 </r>
      </set>
      <set comment="kpoint 14">
       <r>   -5.2815    1.0000 </r>
       <r>   -0.7615    1.0000 </r>
       <r>    1.5889    1.0000 </r>
       <r>    2.9890    1.0000 </r>
       <r>    9.0734    0.0000 </r>
       <r>    9.9608    0.0000 </r>
       <r>   10.6230    0.0000 </r>
       <r>   13.6505    0.0000 </r>
       <r>   15.6646    0.0000 </r>
       <r>   16.6446    0.0000 </r>
       <r>   19.8142    0.0000 </r>
       <r>   20.0549    0.0000 </r>
       <r>   20.5478    0.0000 </r>
       <r>   21.8486    0.0000 </r>
       <r>   23.4174    0.0000 </r>
       <r>   24.8742    0.0000 </r>
       <r>   26.6137    0.0000 </r>
       <r>   27.9464    0.0000 </r>
       <r>   28.1795    0.0000 </r>
       <r>   29.6343    0.0000 </r>
       <r>   31.4330    0.0000 </r>
       <r>   31.4604    0.0000 </r>
       <r>   33.4298    0.0000 </r>
       <r>   34.7021    0.0000 </r>
      </set>
      <set comment="kpoint 15">
       <r>   -4.1800    1.0000 </r>
       <r>   -2.1104    1.0000 </r>
       <r>    1.0970    1.0000 </r>
       <r>    2.4750    1.0000 </r>
       <r>    9.5722    0.0000 </r>
       <r>    9.8704    0.0000 </r>
       <r>   12.5467    0.0000 </r>
       <r>   13.0785    0.0000 </r>
       <r>   14.1762    0.0000 </r>
       <r>   17.9094    0.0000 </r>
       <r>   18.7692    0.0000 </r>
       <r>   20.1137    0.0000 </r>
       <r>   23.3060    0.0000 </r>
       <r>   23.8771    0.0000 </r>
       <r>   23.9387    0.0000 </r>
       <r>   24.9177    0.0000 </r>
       <r>   25.3993    0.0000 </r>
       <r>   27.6504    0.0000 </r>
       <r>   28.0092    0.0000 </r>
       <r>   28.6831    0.0000 </r>
       <r>   30.0098    0.0000 </r>
       <r>   32.6141    0.0000 </r>
       <r>   32.6361    0.0000 </r>
       <r>   32.8868    0.0000 </r>
      </set>
      <set comment="kpoint 16">
       <r>   -3.0708    1.0000 </r>
       <r>   -3.0708    1.0000 </r>
       <r>    1.4977    1.0000 </r>
       <r>    1.4977    1.0000 </r>
       <r>    8.9496    0.0000 </r>
       <r>    8.9496    0.0000 </r>
       <r>   13.3130    0.0000 </r>
       <r>   13.3130    0.0000 </r>
       <r>   17.3937    0.0000 </r>
       <r>   17.3937    0.0000 </r>
       <r>   19.8243    0.0000 </r>
       <r>   19.8243    0.0000 </r>
       <r>   23.3402    0.0000 </r>
       <r>   23.3402    0.0000 </r>
       <r>   24.1942    0.0000 </r>
       <r>   24.1942    0.0000 </r>
       <r>   25.5944    0.0000 </r>
       <r>   25.5944    0.0000 </r>
       <r>   28.6584    0.0000 </r>
       <r>   28.6584    0.0000 </r>
       <r>   30.3041    0.0000 </r>
       <r>   30.3041    0.0000 </r>
       <r>   31.6443    0.0000 </r>
       <r>   31.6443    0.0000 </r>
      </set>
      <set comment="kpoint 17">
       <r>   -5.2334    1.0000 </r>
       <r>   -2.2506    1.0000 </r>
       <r>    4.1582    1.0000 </r>
       <r>    4.1592    1.0000 </r>
       <r>    7.7358    0.0000 </r>
       <r>    9.6291    0.0000 </r>
       <r>    9.6317    0.0000 </r>
       <r>   14.1138    0.0000 </r>
       <r>   17.2999    0.0000 </r>
       <r>   17.3003    0.0000 </r>
       <r>   18.0439    0.0000 </r>
       <r>   18.1194    0.0000 </r>
       <r>   18.1215    0.0000 </r>
       <r>   19.9556    0.0000 </r>
       <r>   26.4286    0.0000 </r>
       <r>   26.8547    0.0000 </r>
       <r>   28.5405    0.0000 </r>
       <r>   28.5446    0.0000 </r>
       <r>   28.9770    0.0000 </r>
       <r>   28.9781    0.0000 </r>
       <r>   32.5365    0.0000 </r>
       <r>   33.5408    0.0000 </r>
       <r>   33.5627    0.0000 </r>
       <r>   34.9243    0.0000 </r>
      </set>
      <set comment="kpoint 18">
       <r>   -5.2774    1.0000 </r>
       <r>   -2.1872    1.0000 </r>
       <r>    4.1639    1.0000 </r>
       <r>    4.1650    1.0000 </r>
       <r>    7.7417    0.0000 </r>
       <r>    9.6354    0.0000 </r>
       <r>    9.6386    0.0000 </r>
       <r>   14.1247    0.0000 </r>
       <r>   17.0053    0.0000 </r>
       <r>   17.0074    0.0000 </r>
       <r>   17.9016    0.0000 </r>
       <r>   18.4335    0.0000 </r>
       <r>   18.4351    0.0000 </r>
       <r>   20.0865    0.0000 </r>
       <r>   25.7803    0.0000 </r>
       <r>   27.5322    0.0000 </r>
       <r>   28.0068    0.0000 </r>
       <r>   28.0100    0.0000 </r>
       <r>   29.4749    0.0000 </r>
       <r>   29.4798    0.0000 </r>
       <r>   32.2766    0.0000 </r>
       <r>   33.5773    0.0000 </r>
       <r>   33.5969    0.0000 </r>
       <r>   34.9429    0.0000 </r>
      </set>
      <set comment="kpoint 19">
       <r>   -5.3986    1.0000 </r>
       <r>   -2.0073    1.0000 </r>
       <r>    4.1810    1.0000 </r>
       <r>    4.1827    1.0000 </r>
       <r>    7.7600    0.0000 </r>
       <r>    9.6537    0.0000 </r>
       <r>    9.6584    0.0000 </r>
       <r>   14.1563    0.0000 </r>
       <r>   16.5147    0.0000 </r>
       <r>   16.5176    0.0000 </r>
       <r>   17.5594    0.0000 </r>
       <r>   18.9865    0.0000 </r>
       <r>   18.9892    0.0000 </r>
       <r>   20.3885    0.0000 </r>
       <r>   25.0093    0.0000 </r>
       <r>   27.2954    0.0000 </r>
       <r>   27.2987    0.0000 </r>
       <r>   28.4028    0.0000 </r>
       <r>   30.0775    0.0000 </r>
       <r>   30.0889    0.0000 </r>
       <r>   31.7103    0.0000 </r>
       <r>   33.6862    0.0000 </r>
       <r>   33.7168    0.0000 </r>
       <r>   34.9781    0.0000 </r>
      </set>
      <set comment="kpoint 20">
       <r>   -5.5740    1.0000 </r>
       <r>   -1.7336    1.0000 </r>
       <r>    4.2096    1.0000 </r>
       <r>    4.2115    1.0000 </r>
       <r>    7.7906    0.0000 </r>
       <r>    9.6827    0.0000 </r>
       <r>    9.6878    0.0000 </r>
       <r>   14.2031    0.0000 </r>
       <r>   16.0146    0.0000 </r>
       <r>   16.0180    0.0000 </r>
       <r>   17.1298    0.0000 </r>
       <r>   19.5903    0.0000 </r>
       <r>   19.5958    0.0000 </r>
       <r>   20.7230    0.0000 </r>
       <r>   24.3234    0.0000 </r>
       <r>   26.5838    0.0000 </r>
       <r>   26.6140    0.0000 </r>
       <r>   29.3918    0.0000 </r>
       <r>   30.6099    0.0000 </r>
       <r>   30.6344    0.0000 </r>
       <r>   31.0453    0.0000 </r>
       <r>   33.8657    0.0000 </r>
       <r>   34.0909    0.0000 </r>
       <r>   35.2204    0.0000 </r>
      </set>
      <set comment="kpoint 21">
       <r>   -5.7809    1.0000 </r>
       <r>   -1.3904    1.0000 </r>
       <r>    4.2493    1.0000 </r>
       <r>    4.2513    1.0000 </r>
       <r>    7.8330    0.0000 </r>
       <r>    9.7201    0.0000 </r>
       <r>    9.7254    0.0000 </r>
       <r>   14.2627    0.0000 </r>
       <r>   15.5349    0.0000 </r>
       <r>   15.5381    0.0000 </r>
       <r>   16.6704    0.0000 </r>
       <r>   20.2113    0.0000 </r>
       <r>   20.2118    0.0000 </r>
       <r>   20.9383    0.0000 </r>
       <r>   23.7962    0.0000 </r>
       <r>   25.8768    0.0000 </r>
       <r>   25.8782    0.0000 </r>
       <r>   29.9237    0.0000 </r>
       <r>   30.5688    0.0000 </r>
       <r>   30.9631    0.0000 </r>
       <r>   30.9699    0.0000 </r>
       <r>   34.0079    0.0000 </r>
       <r>   34.0771    0.0000 </r>
       <r>   35.3127    0.0000 </r>
      </set>
      <set comment="kpoint 22">
       <r>   -6.0018    1.0000 </r>
       <r>   -0.9950    1.0000 </r>
       <r>    4.3002    1.0000 </r>
       <r>    4.3020    1.0000 </r>
       <r>    7.8870    0.0000 </r>
       <r>    9.7619    0.0000 </r>
       <r>    9.7669    0.0000 </r>
       <r>   14.3234    0.0000 </r>
       <r>   15.0868    0.0000 </r>
       <r>   15.0897    0.0000 </r>
       <r>   16.2142    0.0000 </r>
       <r>   20.8297    0.0000 </r>
       <r>   20.8300    0.0000 </r>
       <r>   20.8917    0.0000 </r>
       <r>   23.5830    0.0000 </r>
       <r>   25.2099    0.0000 </r>
       <r>   25.2107    0.0000 </r>
       <r>   29.4297    0.0000 </r>
       <r>   31.1999    0.0000 </r>
       <r>   31.2050    0.0000 </r>
       <r>   31.2529    0.0000 </r>
       <r>   34.1445    0.0000 </r>
       <r>   34.2251    0.0000 </r>
       <r>   35.9148    0.0000 </r>
      </set>
      <set comment="kpoint 23">
       <r>   -6.2252    1.0000 </r>
       <r>   -0.5596    1.0000 </r>
       <r>    4.3618    1.0000 </r>
       <r>    4.3637    1.0000 </r>
       <r>    7.9522    0.0000 </r>
       <r>    9.8025    0.0000 </r>
       <r>    9.8075    0.0000 </r>
       <r>   14.3590    0.0000 </r>
       <r>   14.6787    0.0000 </r>
       <r>   14.6817    0.0000 </r>
       <r>   15.7961    0.0000 </r>
       <r>   20.5308    0.0000 </r>
       <r>   21.4110    0.0000 </r>
       <r>   21.4114    0.0000 </r>
       <r>   23.7155    0.0000 </r>
       <r>   24.6137    0.0000 </r>
       <r>   24.6144    0.0000 </r>
       <r>   28.7264    0.0000 </r>
       <r>   31.3254    0.0000 </r>
       <r>   31.3261    0.0000 </r>
       <r>   32.1154    0.0000 </r>
       <r>   34.1822    0.0000 </r>
       <r>   34.1915    0.0000 </r>
       <r>   36.4157    0.0000 </r>
      </set>
      <set comment="kpoint 24">
       <r>   -6.4438    1.0000 </r>
       <r>   -0.0924    1.0000 </r>
       <r>    4.4340    1.0000 </r>
       <r>    4.4362    1.0000 </r>
       <r>    8.0282    0.0000 </r>
       <r>    9.8346    0.0000 </r>
       <r>    9.8406    0.0000 </r>
       <r>   14.3063    0.0000 </r>
       <r>   14.3193    0.0000 </r>
       <r>   14.3220    0.0000 </r>
       <r>   15.4817    0.0000 </r>
       <r>   19.9813    0.0000 </r>
       <r>   21.8631    0.0000 </r>
       <r>   21.8636    0.0000 </r>
       <r>   24.0601    0.0000 </r>
       <r>   24.1825    0.0000 </r>
       <r>   24.1853    0.0000 </r>
       <r>   28.0373    0.0000 </r>
       <r>   31.3777    0.0000 </r>
       <r>   31.3798    0.0000 </r>
       <r>   33.0991    0.0000 </r>
       <r>   34.1949    0.0000 </r>
       <r>   34.3277    0.0000 </r>
       <r>   36.9903    0.0000 </r>
      </set>
      <set comment="kpoint 25">
       <r>   -6.6527    1.0000 </r>
       <r>    0.4007    1.0000 </r>
       <r>    4.5160    1.0000 </r>
       <r>    4.5183    1.0000 </r>
       <r>    8.1142    0.0000 </r>
       <r>    9.8496    0.0000 </r>
       <r>    9.8560    0.0000 </r>
       <r>   14.0179    0.0000 </r>
       <r>   14.0197    0.0000 </r>
       <r>   14.0835    0.0000 </r>
       <r>   15.3501    0.0000 </r>
       <r>   19.3642    0.0000 </r>
       <r>   21.9835    0.0000 </r>
       <r>   21.9836    0.0000 </r>
       <r>   24.1184    0.0000 </r>
       <r>   24.1218    0.0000 </r>
       <r>   24.4768    0.0000 </r>
       <r>   27.3980    0.0000 </r>
       <r>   31.3792    0.0000 </r>
       <r>   31.3824    0.0000 </r>
       <r>   34.0118    0.0000 </r>
       <r>   34.1541    0.0000 </r>
       <r>   34.3129    0.0000 </r>
       <r>   36.8951    0.0000 </r>
      </set>
      <set comment="kpoint 26">
       <r>   -6.8487    1.0000 </r>
       <r>    0.9149    1.0000 </r>
       <r>    4.6072    1.0000 </r>
       <r>    4.6095    1.0000 </r>
       <r>    8.2093    0.0000 </r>
       <r>    9.8384    0.0000 </r>
       <r>    9.8448    0.0000 </r>
       <r>   13.7093    0.0000 </r>
       <r>   13.7843    0.0000 </r>
       <r>   13.7856    0.0000 </r>
       <r>   15.3760    0.0000 </r>
       <r>   18.7434    0.0000 </r>
       <r>   21.7059    0.0000 </r>
       <r>   21.7063    0.0000 </r>
       <r>   24.4890    0.0000 </r>
       <r>   24.4921    0.0000 </r>
       <r>   24.8455    0.0000 </r>
       <r>   26.8796    0.0000 </r>
       <r>   31.3531    0.0000 </r>
       <r>   31.3583    0.0000 </r>
       <r>   34.0741    0.0000 </r>
       <r>   34.2537    0.0000 </r>
       <r>   34.9208    0.0000 </r>
       <r>   36.7003    0.0000 </r>
      </set>
      <set comment="kpoint 27">
       <r>   -7.0296    1.0000 </r>
       <r>    1.4461    1.0000 </r>
       <r>    4.7065    1.0000 </r>
       <r>    4.7086    1.0000 </r>
       <r>    8.3120    0.0000 </r>
       <r>    9.7933    0.0000 </r>
       <r>    9.7996    0.0000 </r>
       <r>   13.2607    0.0000 </r>
       <r>   13.6259    0.0000 </r>
       <r>   13.6268    0.0000 </r>
       <r>   15.4693    0.0000 </r>
       <r>   18.1595    0.0000 </r>
       <r>   21.2350    0.0000 </r>
       <r>   21.2357    0.0000 </r>
       <r>   24.9647    0.0000 </r>
       <r>   25.0883    0.0000 </r>
       <r>   25.0910    0.0000 </r>
       <r>   26.6616    0.0000 </r>
       <r>   31.3113    0.0000 </r>
       <r>   31.3183    0.0000 </r>
       <r>   34.0010    0.0000 </r>
       <r>   34.1974    0.0000 </r>
       <r>   35.6083    0.0000 </r>
       <r>   36.6200    0.0000 </r>
      </set>
      <set comment="kpoint 28">
       <r>   -7.1939    1.0000 </r>
       <r>    1.9903    1.0000 </r>
       <r>    4.8122    1.0000 </r>
       <r>    4.8138    1.0000 </r>
       <r>    8.4193    0.0000 </r>
       <r>    9.7114    0.0000 </r>
       <r>    9.7137    0.0000 </r>
       <r>   12.7803    0.0000 </r>
       <r>   13.5460    0.0000 </r>
       <r>   13.5465    0.0000 </r>
       <r>   15.5568    0.0000 </r>
       <r>   17.6552    0.0000 </r>
       <r>   20.7092    0.0000 </r>
       <r>   20.7097    0.0000 </r>
       <r>   24.6962    0.0000 </r>
       <r>   25.7784    0.0000 </r>
       <r>   25.7790    0.0000 </r>
       <r>   26.8714    0.0000 </r>
       <r>   31.2642    0.0000 </r>
       <r>   31.2644    0.0000 </r>
       <r>   33.9101    0.0000 </r>
       <r>   33.9188    0.0000 </r>
       <r>   35.6775    0.0000 </r>
       <r>   36.8954    0.0000 </r>
      </set>
      <set comment="kpoint 29">
       <r>   -7.3407    1.0000 </r>
       <r>    2.5420    1.0000 </r>
       <r>    4.9224    1.0000 </r>
       <r>    4.9234    1.0000 </r>
       <r>    8.5294    0.0000 </r>
       <r>    9.5954    0.0000 </r>
       <r>    9.5973    0.0000 </r>
       <r>   12.2853    0.0000 </r>
       <r>   13.5409    0.0000 </r>
       <r>   13.5413    0.0000 </r>
       <r>   15.5754    0.0000 </r>
       <r>   17.2927    0.0000 </r>
       <r>   20.1792    0.0000 </r>
       <r>   20.1794    0.0000 </r>
       <r>   24.2300    0.0000 </r>
       <r>   26.5077    0.0000 </r>
       <r>   26.5081    0.0000 </r>
       <r>   27.3150    0.0000 </r>
       <r>   31.2176    0.0000 </r>
       <r>   31.2180    0.0000 </r>
       <r>   33.8337    0.0000 </r>
       <r>   33.8382    0.0000 </r>
       <r>   35.4013    0.0000 </r>
       <r>   36.7465    0.0000 </r>
      </set>
      <set comment="kpoint 30">
       <r>   -7.4690    1.0000 </r>
       <r>    3.0957    1.0000 </r>
       <r>    5.0343    1.0000 </r>
       <r>    5.0351    1.0000 </r>
       <r>    8.6379    0.0000 </r>
       <r>    9.4547    0.0000 </r>
       <r>    9.4563    0.0000 </r>
       <r>   11.7864    0.0000 </r>
       <r>   13.6003    0.0000 </r>
       <r>   13.6008    0.0000 </r>
       <r>   15.4560    0.0000 </r>
       <r>   17.1372    0.0000 </r>
       <r>   19.6673    0.0000 </r>
       <r>   19.6676    0.0000 </r>
       <r>   23.7206    0.0000 </r>
       <r>   27.2518    0.0000 </r>
       <r>   27.2521    0.0000 </r>
       <r>   27.8349    0.0000 </r>
       <r>   31.1775    0.0000 </r>
       <r>   31.1780    0.0000 </r>
       <r>   33.7550    0.0000 </r>
       <r>   33.7572    0.0000 </r>
       <r>   35.0459    0.0000 </r>
       <r>   36.6488    0.0000 </r>
      </set>
      <set comment="kpoint 31">
       <r>   -7.5783    1.0000 </r>
       <r>    3.6427    1.0000 </r>
       <r>    5.1441    1.0000 </r>
       <r>    5.1446    1.0000 </r>
       <r>    8.7382    0.0000 </r>
       <r>    9.3020    0.0000 </r>
       <r>    9.3033    0.0000 </r>
       <r>   11.2943    0.0000 </r>
       <r>   13.7096    0.0000 </r>
       <r>   13.7101    0.0000 </r>
       <r>   15.2128    0.0000 </r>
       <r>   17.1734    0.0000 </r>
       <r>   19.1873    0.0000 </r>
       <r>   19.1877    0.0000 </r>
       <r>   23.2236    0.0000 </r>
       <r>   27.9921    0.0000 </r>
       <r>   27.9923    0.0000 </r>
       <r>   28.3737    0.0000 </r>
       <r>   31.1507    0.0000 </r>
       <r>   31.1510    0.0000 </r>
       <r>   33.6719    0.0000 </r>
       <r>   33.6731    0.0000 </r>
       <r>   34.6599    0.0000 </r>
       <r>   36.6204    0.0000 </r>
      </set>
      <set comment="kpoint 32">
       <r>   -7.6682    1.0000 </r>
       <r>    4.1703    1.0000 </r>
       <r>    5.2470    1.0000 </r>
       <r>    5.2476    1.0000 </r>
       <r>    8.8207    0.0000 </r>
       <r>    9.1511    0.0000 </r>
       <r>    9.1530    0.0000 </r>
       <r>   10.8254    0.0000 </r>
       <r>   13.8507    0.0000 </r>
       <r>   13.8514    0.0000 </r>
       <r>   14.9303    0.0000 </r>
       <r>   17.3159    0.0000 </r>
       <r>   18.7524    0.0000 </r>
       <r>   18.7529    0.0000 </r>
       <r>   22.7655    0.0000 </r>
       <r>   28.7050    0.0000 </r>
       <r>   28.7067    0.0000 </r>
       <r>   28.9038    0.0000 </r>
       <r>   31.1459    0.0000 </r>
       <r>   31.1470    0.0000 </r>
       <r>   33.5787    0.0000 </r>
       <r>   33.5914    0.0000 </r>
       <r>   34.2569    0.0000 </r>
       <r>   36.5563    0.0000 </r>
      </set>
      <set comment="kpoint 33">
       <r>   -7.7384    1.0000 </r>
       <r>    4.6582    1.0000 </r>
       <r>    5.3375    1.0000 </r>
       <r>    5.3379    1.0000 </r>
       <r>    8.8715    0.0000 </r>
       <r>    9.0157    0.0000 </r>
       <r>    9.0172    0.0000 </r>
       <r>   10.4067    0.0000 </r>
       <r>   14.0031    0.0000 </r>
       <r>   14.0039    0.0000 </r>
       <r>   14.6688    0.0000 </r>
       <r>   17.4941    0.0000 </r>
       <r>   18.3775    0.0000 </r>
       <r>   18.3780    0.0000 </r>
       <r>   22.3673    0.0000 </r>
       <r>   29.3515    0.0000 </r>
       <r>   29.3529    0.0000 </r>
       <r>   29.4010    0.0000 </r>
       <r>   31.1824    0.0000 </r>
       <r>   31.1834    0.0000 </r>
       <r>   33.4704    0.0000 </r>
       <r>   33.4792    0.0000 </r>
       <r>   33.8614    0.0000 </r>
       <r>   36.5462    0.0000 </r>
      </set>
      <set comment="kpoint 34">
       <r>   -7.7886    1.0000 </r>
       <r>    5.0731    1.0000 </r>
       <r>    5.4089    1.0000 </r>
       <r>    5.4092    1.0000 </r>
       <r>    8.8759    0.0000 </r>
       <r>    8.9082    0.0000 </r>
       <r>    8.9094    0.0000 </r>
       <r>   10.0796    0.0000 </r>
       <r>   14.1426    0.0000 </r>
       <r>   14.1435    0.0000 </r>
       <r>   14.4643    0.0000 </r>
       <r>   17.6613    0.0000 </r>
       <r>   18.0824    0.0000 </r>
       <r>   18.0829    0.0000 </r>
       <r>   22.0522    0.0000 </r>
       <r>   29.8328    0.0000 </r>
       <r>   29.8647    0.0000 </r>
       <r>   29.8666    0.0000 </r>
       <r>   31.2891    0.0000 </r>
       <r>   31.2898    0.0000 </r>
       <r>   33.3391    0.0000 </r>
       <r>   33.3413    0.0000 </r>
       <r>   33.5039    0.0000 </r>
       <r>   36.5099    0.0000 </r>
      </set>
      <set comment="kpoint 35">
       <r>   -7.8189    1.0000 </r>
       <r>    5.3641    1.0000 </r>
       <r>    5.4549    1.0000 </r>
       <r>    5.4551    1.0000 </r>
       <r>    8.8389    0.0000 </r>
       <r>    8.8397    0.0000 </r>
       <r>    8.8402    0.0000 </r>
       <r>    9.8831    0.0000 </r>
       <r>   14.2424    0.0000 </r>
       <r>   14.2435    0.0000 </r>
       <r>   14.3353    0.0000 </r>
       <r>   17.7810    0.0000 </r>
       <r>   17.8906    0.0000 </r>
       <r>   17.8918    0.0000 </r>
       <r>   21.8468    0.0000 </r>
       <r>   30.1490    0.0000 </r>
       <r>   30.1690    0.0000 </r>
       <r>   30.1853    0.0000 </r>
       <r>   31.4611    0.0000 </r>
       <r>   31.4646    0.0000 </r>
       <r>   33.2007    0.0000 </r>
       <r>   33.2145    0.0000 </r>
       <r>   33.2585    0.0000 </r>
       <r>   36.5045    0.0000 </r>
      </set>
      <set comment="kpoint 36">
       <r>   -7.8289    1.0000 </r>
       <r>    5.4709    1.0000 </r>
       <r>    5.4710    1.0000 </r>
       <r>    5.4711    1.0000 </r>
       <r>    8.8146    0.0000 </r>
       <r>    8.8152    0.0000 </r>
       <r>    8.8159    0.0000 </r>
       <r>    9.8210    0.0000 </r>
       <r>   14.2790    0.0000 </r>
       <r>   14.2802    0.0000 </r>
       <r>   14.2911    0.0000 </r>
       <r>   17.8234    0.0000 </r>
       <r>   17.8237    0.0000 </r>
       <r>   17.8243    0.0000 </r>
       <r>   21.7747    0.0000 </r>
       <r>   30.2598    0.0000 </r>
       <r>   30.2609    0.0000 </r>
       <r>   30.2629    0.0000 </r>
       <r>   31.5590    0.0000 </r>
       <r>   31.5600    0.0000 </r>
       <r>   33.1238    0.0000 </r>
       <r>   33.1274    0.0000 </r>
       <r>   33.1297    0.0000 </r>
       <r>   36.3299    0.0000 </r>
      </set>
      <set comment="kpoint 37">
       <r>   -7.8289    1.0000 </r>
       <r>    5.4709    1.0000 </r>
       <r>    5.4710    1.0000 </r>
       <r>    5.4711    1.0000 </r>
       <r>    8.8146    0.0000 </r>
       <r>    8.8152    0.0000 </r>
       <r>    8.8159    0.0000 </r>
       <r>    9.8210    0.0000 </r>
       <r>   14.2790    0.0000 </r>
       <r>   14.2802    0.0000 </r>
       <r>   14.2911    0.0000 </r>
       <r>   17.8234    0.0000 </r>
       <r>   17.8237    0.0000 </r>
       <r>   17.8243    0.0000 </r>
       <r>   21.7747    0.0000 </r>
       <r>   30.2598    0.0000 </r>
       <r>   30.2609    0.0000 </r>
       <r>   30.2629    0.0000 </r>
       <r>   31.5590    0.0000 </r>
       <r>   31.5600    0.0000 </r>
       <r>   33.1238    0.0000 </r>
       <r>   33.1274    0.0000 </r>
       <r>   33.1297    0.0000 </r>
       <r>   36.3299    0.0000 </r>
      </set>
      <set comment="kpoint 38">
       <r>   -7.8155    1.0000 </r>
       <r>    5.3891    1.0000 </r>
       <r>    5.4191    1.0000 </r>
       <r>    5.4193    1.0000 </r>
       <r>    8.7820    0.0000 </r>
       <r>    8.8829    0.0000 </r>
       <r>    8.8831    0.0000 </r>
       <r>    9.8997    0.0000 </r>
       <r>   14.1688    0.0000 </r>
       <r>   14.2946    0.0000 </r>
       <r>   14.3496    0.0000 </r>
       <r>   17.8458    0.0000 </r>
       <r>   17.8466    0.0000 </r>
       <r>   17.8974    0.0000 </r>
       <r>   21.8715    0.0000 </r>
       <r>   30.0651    0.0000 </r>
       <r>   30.0678    0.0000 </r>
       <r>   30.2751    0.0000 </r>
       <r>   31.3835    0.0000 </r>
       <r>   31.4435    0.0000 </r>
       <r>   33.2101    0.0000 </r>
       <r>   33.2492    0.0000 </r>
       <r>   33.2566    0.0000 </r>
       <r>   36.5068    0.0000 </r>
      </set>
      <set comment="kpoint 39">
       <r>   -7.7752    1.0000 </r>
       <r>    5.1605    1.0000 </r>
       <r>    5.2754    1.0000 </r>
       <r>    5.2757    1.0000 </r>
       <r>    8.6855    0.0000 </r>
       <r>    9.0745    0.0000 </r>
       <r>    9.0747    0.0000 </r>
       <r>   10.1138    0.0000 </r>
       <r>   13.8792    0.0000 </r>
       <r>   14.3374    0.0000 </r>
       <r>   14.5204    0.0000 </r>
       <r>   17.9124    0.0000 </r>
       <r>   17.9131    0.0000 </r>
       <r>   18.0868    0.0000 </r>
       <r>   22.1571    0.0000 </r>
       <r>   29.5745    0.0000 </r>
       <r>   29.5767    0.0000 </r>
       <r>   30.3192    0.0000 </r>
       <r>   30.9220    0.0000 </r>
       <r>   31.1474    0.0000 </r>
       <r>   33.3952    0.0000 </r>
       <r>   33.5267    0.0000 </r>
       <r>   33.5327    0.0000 </r>
       <r>   36.9443    0.0000 </r>
      </set>
      <set comment="kpoint 40">
       <r>   -7.7080    1.0000 </r>
       <r>    4.8218    1.0000 </r>
       <r>    5.0664    1.0000 </r>
       <r>    5.0679    1.0000 </r>
       <r>    8.5419    0.0000 </r>
       <r>    9.3626    0.0000 </r>
       <r>    9.3640    0.0000 </r>
       <r>   10.4087    0.0000 </r>
       <r>   13.5001    0.0000 </r>
       <r>   14.4090    0.0000 </r>
       <r>   14.7947    0.0000 </r>
       <r>   18.0231    0.0000 </r>
       <r>   18.0256    0.0000 </r>
       <r>   18.3332    0.0000 </r>
       <r>   22.6163    0.0000 </r>
       <r>   28.9345    0.0000 </r>
       <r>   28.9542    0.0000 </r>
       <r>   30.3014    0.0000 </r>
       <r>   30.3957    0.0000 </r>
       <r>   30.7586    0.0000 </r>
       <r>   33.6736    0.0000 </r>
       <r>   33.8188    0.0000 </r>
       <r>   33.8440    0.0000 </r>
       <r>   37.1851    0.0000 </r>
      </set>
      <set comment="kpoint 41">
       <r>   -7.6141    1.0000 </r>
       <r>    4.4098    1.0000 </r>
       <r>    4.8195    1.0000 </r>
       <r>    4.8213    1.0000 </r>
       <r>    8.3585    0.0000 </r>
       <r>    9.7200    0.0000 </r>
       <r>    9.7213    0.0000 </r>
       <r>   10.7029    0.0000 </r>
       <r>   13.1383    0.0000 </r>
       <r>   14.5093    0.0000 </r>
       <r>   15.1488    0.0000 </r>
       <r>   18.1784    0.0000 </r>
       <r>   18.1799    0.0000 </r>
       <r>   18.5996    0.0000 </r>
       <r>   23.2241    0.0000 </r>
       <r>   28.2312    0.0000 </r>
       <r>   28.2925    0.0000 </r>
       <r>   29.6289    0.0000 </r>
       <r>   30.3508    0.0000 </r>
       <r>   30.5366    0.0000 </r>
       <r>   33.9788    0.0000 </r>
       <r>   34.1165    0.0000 </r>
       <r>   34.1379    0.0000 </r>
       <r>   37.8618    0.0000 </r>
      </set>
      <set comment="kpoint 42">
       <r>   -7.4936    1.0000 </r>
       <r>    3.9507    1.0000 </r>
       <r>    4.5548    1.0000 </r>
       <r>    4.5572    1.0000 </r>
       <r>    8.1539    0.0000 </r>
       <r>   10.1255    0.0000 </r>
       <r>   10.1270    0.0000 </r>
       <r>   10.8663    0.0000 </r>
       <r>   12.9364    0.0000 </r>
       <r>   14.6379    0.0000 </r>
       <r>   15.5717    0.0000 </r>
       <r>   18.3765    0.0000 </r>
       <r>   18.3775    0.0000 </r>
       <r>   18.8731    0.0000 </r>
       <r>   23.9489    0.0000 </r>
       <r>   27.4998    0.0000 </r>
       <r>   27.5370    0.0000 </r>
       <r>   28.8678    0.0000 </r>
       <r>   29.8638    0.0000 </r>
       <r>   30.6981    0.0000 </r>
       <r>   34.0856    0.0000 </r>
       <r>   34.3048    0.0000 </r>
       <r>   34.3605    0.0000 </r>
       <r>   38.6586    0.0000 </r>
      </set>
      <set comment="kpoint 43">
       <r>   -7.3467    1.0000 </r>
       <r>    3.4618    1.0000 </r>
       <r>    4.2860    1.0000 </r>
       <r>    4.2889    1.0000 </r>
       <r>    7.9393    0.0000 </r>
       <r>   10.5648    0.0000 </r>
       <r>   10.5662    0.0000 </r>
       <r>   10.7685    0.0000 </r>
       <r>   13.0317    0.0000 </r>
       <r>   14.7947    0.0000 </r>
       <r>   16.0489    0.0000 </r>
       <r>   18.6158    0.0000 </r>
       <r>   18.6166    0.0000 </r>
       <r>   19.1561    0.0000 </r>
       <r>   24.7588    0.0000 </r>
       <r>   26.7549    0.0000 </r>
       <r>   26.7585    0.0000 </r>
       <r>   28.0511    0.0000 </r>
       <r>   29.3168    0.0000 </r>
       <r>   30.8299    0.0000 </r>
       <r>   34.0646    0.0000 </r>
       <r>   34.4396    0.0000 </r>
       <r>   34.4523    0.0000 </r>
       <r>   39.4538    0.0000 </r>
      </set>
      <set comment="kpoint 44">
       <r>   -7.1734    1.0000 </r>
       <r>    2.9536    1.0000 </r>
       <r>    4.0224    1.0000 </r>
       <r>    4.0262    1.0000 </r>
       <r>    7.7286    0.0000 </r>
       <r>   10.4501    0.0000 </r>
       <r>   11.0283    0.0000 </r>
       <r>   11.0302    0.0000 </r>
       <r>   13.3862    0.0000 </r>
       <r>   14.9798    0.0000 </r>
       <r>   16.5700    0.0000 </r>
       <r>   18.8951    0.0000 </r>
       <r>   18.8959    0.0000 </r>
       <r>   19.4556    0.0000 </r>
       <r>   25.6256    0.0000 </r>
       <r>   26.0255    0.0000 </r>
       <r>   26.0288    0.0000 </r>
       <r>   27.2800    0.0000 </r>
       <r>   28.8038    0.0000 </r>
       <r>   31.0583    0.0000 </r>
       <r>   34.0694    0.0000 </r>
       <r>   34.5845    0.0000 </r>
       <r>   34.5994    0.0000 </r>
       <r>   38.7482    0.0000 </r>
      </set>
      <set comment="kpoint 45">
       <r>   -6.9742    1.0000 </r>
       <r>    2.4343    1.0000 </r>
       <r>    3.7701    1.0000 </r>
       <r>    3.7779    1.0000 </r>
       <r>    7.5283    0.0000 </r>
       <r>   10.0374    0.0000 </r>
       <r>   11.5098    0.0000 </r>
       <r>   11.5133    0.0000 </r>
       <r>   13.8780    0.0000 </r>
       <r>   15.1959    0.0000 </r>
       <r>   17.1236    0.0000 </r>
       <r>   19.2108    0.0000 </r>
       <r>   19.2109    0.0000 </r>
       <r>   19.7796    0.0000 </r>
       <r>   25.3162    0.0000 </r>
       <r>   25.3183    0.0000 </r>
       <r>   26.5166    0.0000 </r>
       <r>   26.5211    0.0000 </r>
       <r>   28.2901    0.0000 </r>
       <r>   31.3466    0.0000 </r>
       <r>   33.9852    0.0000 </r>
       <r>   34.7007    0.0000 </r>
       <r>   34.7050    0.0000 </r>
       <r>   37.9276    0.0000 </r>
      </set>
      <set comment="kpoint 46">
       <r>   -6.7493    1.0000 </r>
       <r>    1.9062    1.0000 </r>
       <r>    3.5323    1.0000 </r>
       <r>    3.5413    1.0000 </r>
       <r>    7.3373    0.0000 </r>
       <r>    9.5988    0.0000 </r>
       <r>   12.0035    0.0000 </r>
       <r>   12.0071    0.0000 </r>
       <r>   14.4342    0.0000 </r>
       <r>   15.4365    0.0000 </r>
       <r>   17.6979    0.0000 </r>
       <r>   19.5497    0.0000 </r>
       <r>   19.5502    0.0000 </r>
       <r>   20.1323    0.0000 </r>
       <r>   24.6405    0.0000 </r>
       <r>   24.6425    0.0000 </r>
       <r>   25.7645    0.0000 </r>
       <r>   27.4144    0.0000 </r>
       <r>   27.7837    0.0000 </r>
       <r>   31.7037    0.0000 </r>
       <r>   33.7794    0.0000 </r>
       <r>   34.7311    0.0000 </r>
       <r>   34.7627    0.0000 </r>
       <r>   37.0528    0.0000 </r>
      </set>
      <set comment="kpoint 47">
       <r>   -6.4991    1.0000 </r>
       <r>    1.3743    1.0000 </r>
       <r>    3.3125    1.0000 </r>
       <r>    3.3222    1.0000 </r>
       <r>    7.1639    0.0000 </r>
       <r>    9.1685    0.0000 </r>
       <r>   12.5073    0.0000 </r>
       <r>   12.5104    0.0000 </r>
       <r>   15.0213    0.0000 </r>
       <r>   15.7054    0.0000 </r>
       <r>   18.2824    0.0000 </r>
       <r>   19.8949    0.0000 </r>
       <r>   19.8997    0.0000 </r>
       <r>   20.5232    0.0000 </r>
       <r>   24.0226    0.0000 </r>
       <r>   24.0307    0.0000 </r>
       <r>   25.0599    0.0000 </r>
       <r>   27.3217    0.0000 </r>
       <r>   28.2841    0.0000 </r>
       <r>   32.1941    0.0000 </r>
       <r>   33.5472    0.0000 </r>
       <r>   34.6254    0.0000 </r>
       <r>   34.8686    0.0000 </r>
       <r>   36.4861    0.0000 </r>
      </set>
      <set comment="kpoint 48">
       <r>   -6.2240    1.0000 </r>
       <r>    0.8413    1.0000 </r>
       <r>    3.1123    1.0000 </r>
       <r>    3.1227    1.0000 </r>
       <r>    7.0113    0.0000 </r>
       <r>    8.7618    0.0000 </r>
       <r>   13.0186    0.0000 </r>
       <r>   13.0209    0.0000 </r>
       <r>   15.6214    0.0000 </r>
       <r>   16.0027    0.0000 </r>
       <r>   18.8621    0.0000 </r>
       <r>   20.2047    0.0000 </r>
       <r>   20.2110    0.0000 </r>
       <r>   20.9504    0.0000 </r>
       <r>   23.5040    0.0000 </r>
       <r>   23.5077    0.0000 </r>
       <r>   24.3371    0.0000 </r>
       <r>   26.8634    0.0000 </r>
       <r>   29.0922    0.0000 </r>
       <r>   32.8020    0.0000 </r>
       <r>   33.1173    0.0000 </r>
       <r>   34.1419    0.0000 </r>
       <r>   34.8086    0.0000 </r>
       <r>   35.9856    0.0000 </r>
      </set>
      <set comment="kpoint 49">
       <r>   -5.9245    1.0000 </r>
       <r>    0.3087    1.0000 </r>
       <r>    2.9330    1.0000 </r>
       <r>    2.9452    1.0000 </r>
       <r>    6.8833    0.0000 </r>
       <r>    8.3858    0.0000 </r>
       <r>   13.5360    0.0000 </r>
       <r>   13.5379    0.0000 </r>
       <r>   16.2242    0.0000 </r>
       <r>   16.3263    0.0000 </r>
       <r>   19.4161    0.0000 </r>
       <r>   20.3935    0.0000 </r>
       <r>   20.3937    0.0000 </r>
       <r>   21.4140    0.0000 </r>
       <r>   23.1650    0.0000 </r>
       <r>   23.1665    0.0000 </r>
       <r>   23.6020    0.0000 </r>
       <r>   26.4329    0.0000 </r>
       <r>   29.7333    0.0000 </r>
       <r>   32.1814    0.0000 </r>
       <r>   33.1700    0.0000 </r>
       <r>   33.2305    0.0000 </r>
       <r>   33.3987    0.0000 </r>
       <r>   34.8997    0.0000 </r>
      </set>
      <set comment="kpoint 50">
       <r>   -5.6011    1.0000 </r>
       <r>   -0.2199    1.0000 </r>
       <r>    2.7762    1.0000 </r>
       <r>    2.7878    1.0000 </r>
       <r>    6.7804    0.0000 </r>
       <r>    8.0445    0.0000 </r>
       <r>   14.0586    0.0000 </r>
       <r>   14.0598    0.0000 </r>
       <r>   16.6778    0.0000 </r>
       <r>   16.8205    0.0000 </r>
       <r>   19.9137    0.0000 </r>
       <r>   20.3468    0.0000 </r>
       <r>   20.3495    0.0000 </r>
       <r>   21.9252    0.0000 </r>
       <r>   22.9239    0.0000 </r>
       <r>   23.1262    0.0000 </r>
       <r>   23.1282    0.0000 </r>
       <r>   26.1100    0.0000 </r>
       <r>   30.3087    0.0000 </r>
       <r>   31.4158    0.0000 </r>
       <r>   32.2530    0.0000 </r>
       <r>   32.2810    0.0000 </r>
       <r>   33.4429    0.0000 </r>
       <r>   34.6852    0.0000 </r>
      </set>
      <set comment="kpoint 51">
       <r>   -5.2546    1.0000 </r>
       <r>   -0.7432    1.0000 </r>
       <r>    2.6427    1.0000 </r>
       <r>    2.6543    1.0000 </r>
       <r>    6.7072    0.0000 </r>
       <r>    7.7397    0.0000 </r>
       <r>   14.5859    0.0000 </r>
       <r>   14.5867    0.0000 </r>
       <r>   17.0556    0.0000 </r>
       <r>   17.4051    0.0000 </r>
       <r>   20.0545    0.0000 </r>
       <r>   20.0555    0.0000 </r>
       <r>   20.3129    0.0000 </r>
       <r>   22.2861    0.0000 </r>
       <r>   22.4829    0.0000 </r>
       <r>   23.4008    0.0000 </r>
       <r>   23.4035    0.0000 </r>
       <r>   25.9303    0.0000 </r>
       <r>   30.6890    0.0000 </r>
       <r>   30.8763    0.0000 </r>
       <r>   31.3708    0.0000 </r>
       <r>   31.6197    0.0000 </r>
       <r>   32.8530    0.0000 </r>
       <r>   35.6125    0.0000 </r>
      </set>
      <set comment="kpoint 52">
       <r>   -4.8858    1.0000 </r>
       <r>   -1.2582    1.0000 </r>
       <r>    2.5328    1.0000 </r>
       <r>    2.5415    1.0000 </r>
       <r>    6.6569    0.0000 </r>
       <r>    7.4737    0.0000 </r>
       <r>   15.1170    0.0000 </r>
       <r>   15.1173    0.0000 </r>
       <r>   17.4601    0.0000 </r>
       <r>   17.9724    0.0000 </r>
       <r>   19.6034    0.0000 </r>
       <r>   19.6052    0.0000 </r>
       <r>   20.5659    0.0000 </r>
       <r>   21.6347    0.0000 </r>
       <r>   23.0795    0.0000 </r>
       <r>   23.8839    0.0000 </r>
       <r>   23.8846    0.0000 </r>
       <r>   25.8527    0.0000 </r>
       <r>   29.7466    0.0000 </r>
       <r>   30.3714    0.0000 </r>
       <r>   30.3763    0.0000 </r>
       <r>   31.1033    0.0000 </r>
       <r>   31.7685    0.0000 </r>
       <r>   34.5250    0.0000 </r>
      </set>
      <set comment="kpoint 53">
       <r>   -4.4953    1.0000 </r>
       <r>   -1.7637    1.0000 </r>
       <r>    2.4469    1.0000 </r>
       <r>    2.4554    1.0000 </r>
       <r>    6.6400    0.0000 </r>
       <r>    7.2448    0.0000 </r>
       <r>   15.6507    0.0000 </r>
       <r>   15.6514    0.0000 </r>
       <r>   17.8919    0.0000 </r>
       <r>   18.5166    0.0000 </r>
       <r>   19.0894    0.0000 </r>
       <r>   19.0900    0.0000 </r>
       <r>   20.6378    0.0000 </r>
       <r>   21.0253    0.0000 </r>
       <r>   23.7181    0.0000 </r>
       <r>   24.4941    0.0000 </r>
       <r>   24.4949    0.0000 </r>
       <r>   25.9638    0.0000 </r>
       <r>   28.9520    0.0000 </r>
       <r>   29.4449    0.0000 </r>
       <r>   29.4482    0.0000 </r>
       <r>   30.5855    0.0000 </r>
       <r>   31.7824    0.0000 </r>
       <r>   34.1027    0.0000 </r>
      </set>
      <set comment="kpoint 54">
       <r>   -4.0844    1.0000 </r>
       <r>   -2.2576    1.0000 </r>
       <r>    2.3853    1.0000 </r>
       <r>    2.3952    1.0000 </r>
       <r>    6.6555    0.0000 </r>
       <r>    7.0535    0.0000 </r>
       <r>   16.1814    0.0000 </r>
       <r>   16.1827    0.0000 </r>
       <r>   18.3499    0.0000 </r>
       <r>   18.5537    0.0000 </r>
       <r>   18.5551    0.0000 </r>
       <r>   19.0317    0.0000 </r>
       <r>   20.4396    0.0000 </r>
       <r>   20.5336    0.0000 </r>
       <r>   24.3875    0.0000 </r>
       <r>   25.1826    0.0000 </r>
       <r>   25.1835    0.0000 </r>
       <r>   26.1530    0.0000 </r>
       <r>   28.2939    0.0000 </r>
       <r>   28.5423    0.0000 </r>
       <r>   28.5434    0.0000 </r>
       <r>   29.7567    0.0000 </r>
       <r>   32.1386    0.0000 </r>
       <r>   33.6910    0.0000 </r>
      </set>
      <set comment="kpoint 55">
       <r>   -3.6540    1.0000 </r>
       <r>   -2.7376    1.0000 </r>
       <r>    2.3489    1.0000 </r>
       <r>    2.3587    1.0000 </r>
       <r>    6.7048    0.0000 </r>
       <r>    6.8991    0.0000 </r>
       <r>   16.6862    0.0000 </r>
       <r>   16.6879    0.0000 </r>
       <r>   18.0393    0.0000 </r>
       <r>   18.0433    0.0000 </r>
       <r>   18.8343    0.0000 </r>
       <r>   19.5080    0.0000 </r>
       <r>   19.8794    0.0000 </r>
       <r>   20.2864    0.0000 </r>
       <r>   25.0679    0.0000 </r>
       <r>   25.9143    0.0000 </r>
       <r>   25.9148    0.0000 </r>
       <r>   26.1434    0.0000 </r>
       <r>   27.6877    0.0000 </r>
       <r>   27.6885    0.0000 </r>
       <r>   28.0271    0.0000 </r>
       <r>   28.9763    0.0000 </r>
       <r>   32.5083    0.0000 </r>
       <r>   33.3293    0.0000 </r>
      </set>
      <set comment="kpoint 56">
       <r>   -3.2054    1.0000 </r>
       <r>   -3.2026    1.0000 </r>
       <r>    2.3368    1.0000 </r>
       <r>    2.3450    1.0000 </r>
       <r>    6.7808    0.0000 </r>
       <r>    6.7887    0.0000 </r>
       <r>   16.9905    0.0000 </r>
       <r>   16.9933    0.0000 </r>
       <r>   17.7318    0.0000 </r>
       <r>   17.7365    0.0000 </r>
       <r>   19.3439    0.0000 </r>
       <r>   19.3445    0.0000 </r>
       <r>   19.9332    0.0000 </r>
       <r>   19.9334    0.0000 </r>
       <r>   25.7070    0.0000 </r>
       <r>   25.7124    0.0000 </r>
       <r>   26.4705    0.0000 </r>
       <r>   26.4720    0.0000 </r>
       <r>   27.0906    0.0000 </r>
       <r>   27.0914    0.0000 </r>
       <r>   28.3327    0.0000 </r>
       <r>   28.3376    0.0000 </r>
       <r>   32.8770    0.0000 </r>
       <r>   32.9038    0.0000 </r>
      </set>
      <set comment="kpoint 57">
       <r>   -3.2054    1.0000 </r>
       <r>   -3.2026    1.0000 </r>
       <r>    2.3368    1.0000 </r>
       <r>    2.3450    1.0000 </r>
       <r>    6.7808    0.0000 </r>
       <r>    6.7887    0.0000 </r>
       <r>   16.9905    0.0000 </r>
       <r>   16.9933    0.0000 </r>
       <r>   17.7318    0.0000 </r>
       <r>   17.7365    0.0000 </r>
       <r>   19.3439    0.0000 </r>
       <r>   19.3445    0.0000 </r>
       <r>   19.9332    0.0000 </r>
       <r>   19.9334    0.0000 </r>
       <r>   25.7070    0.0000 </r>
       <r>   25.7124    0.0000 </r>
       <r>   26.4705    0.0000 </r>
       <r>   26.4720    0.0000 </r>
       <r>   27.0906    0.0000 </r>
       <r>   27.0914    0.0000 </r>
       <r>   28.3327    0.0000 </r>
       <r>   28.3376    0.0000 </r>
       <r>   32.8770    0.0000 </r>
       <r>   32.9038    0.0000 </r>
      </set>
      <set comment="kpoint 58">
       <r>   -3.5372    1.0000 </r>
       <r>   -2.8522    1.0000 </r>
       <r>    2.2837    1.0000 </r>
       <r>    2.3312    1.0000 </r>
       <r>    6.7937    0.0000 </r>
       <r>    6.9432    0.0000 </r>
       <r>   16.5755    0.0000 </r>
       <r>   16.7612    0.0000 </r>
       <r>   17.6670    0.0000 </r>
       <r>   17.8641    0.0000 </r>
       <r>   19.0875    0.0000 </r>
       <r>   19.7831    0.0000 </r>
       <r>   19.8742    0.0000 </r>
       <r>   20.3916    0.0000 </r>
       <r>   24.9854    0.0000 </r>
       <r>   25.8951    0.0000 </r>
       <r>   26.0805    0.0000 </r>
       <r>   26.3222    0.0000 </r>
       <r>   27.4672    0.0000 </r>
       <r>   27.5655    0.0000 </r>
       <r>   28.2518    0.0000 </r>
       <r>   28.9057    0.0000 </r>
       <r>   32.4486    0.0000 </r>
       <r>   33.0541    0.0000 </r>
      </set>
      <set comment="kpoint 59">
       <r>   -3.8427    1.0000 </r>
       <r>   -2.4942    1.0000 </r>
       <r>    2.1368    1.0000 </r>
       <r>    2.3104    1.0000 </r>
       <r>    6.9382    0.0000 </r>
       <r>    7.2802    0.0000 </r>
       <r>   15.6592    0.0000 </r>
       <r>   16.3630    0.0000 </r>
       <r>   17.3931    0.0000 </r>
       <r>   18.1567    0.0000 </r>
       <r>   18.8872    0.0000 </r>
       <r>   19.9013    0.0000 </r>
       <r>   20.3897    0.0000 </r>
       <r>   21.2337    0.0000 </r>
       <r>   23.9972    0.0000 </r>
       <r>   25.3264    0.0000 </r>
       <r>   26.0940    0.0000 </r>
       <r>   26.3320    0.0000 </r>
       <r>   27.6716    0.0000 </r>
       <r>   27.9536    0.0000 </r>
       <r>   29.1030    0.0000 </r>
       <r>   29.7606    0.0000 </r>
       <r>   31.7913    0.0000 </r>
       <r>   32.9694    0.0000 </r>
      </set>
      <set comment="kpoint 60">
       <r>   -4.1167    1.0000 </r>
       <r>   -2.1456    1.0000 </r>
       <r>    1.9429    1.0000 </r>
       <r>    2.2930    1.0000 </r>
       <r>    7.1940    0.0000 </r>
       <r>    7.7670    0.0000 </r>
       <r>   14.6156    0.0000 </r>
       <r>   15.9133    0.0000 </r>
       <r>   17.0356    0.0000 </r>
       <r>   18.3341    0.0000 </r>
       <r>   18.7733    0.0000 </r>
       <r>   20.1364    0.0000 </r>
       <r>   20.8389    0.0000 </r>
[...]
       </set>
       <set comment="band 12">
        <r>  0.0264  0.0131  0.0049  0.0276  0.0000  0.0000  0.0000  0.0000  0.0000 </r>
        <r>  0.0264  0.0131  0.0049  0.0276  0.0000  0.0000  0.0000  0.0000  0.0000 </r>
       </set>
       <set comment="band 13">
        <r>  0.0119  0.0256  0.0881  0.0410  0.0000  0.0000  0.0000  0.0000  0.0000 </r>
        <r>  0.0119  0.0256  0.0881  0.0410  0.0000  0.0000  0.0000  0.0000  0.0000 </r>
       </set>
       <set comment="band 14">
        <r>  0.0049  0.0356  0.0350  0.0145  0.0000  0.0000  0.0000  0.0000  0.0000 </r>
        <r>  0.0049  0.0356  0.0350  0.0145  0.0000  0.0000  0.0000  0.0000  0.0000 </r>
       </set>
       <set comment="band 15">
        <r>  0.0118  0.0019  0.0025  0.0269  0.0000  0.0000  0.0000  0.0000  0.0000 </r>
        <r>  0.0117  0.0019  0.0025  0.0269  0.0000  0.0000  0.0000  0.0000  0.0000 </r>
       </set>
       <set comment="band 16">
        <r>  0.0191  0.0081  0.0046  0.0567  0.0000  0.0000  0.0000  0.0000  0.0000 </r>
        <r>  0.0191  0.0081  0.0046  0.0567  0.0000  0.0000  0.0000  0.0000  0.0000 </r>
       </set>
       <set comment="band 17">
        <r>  0.0122  0.0411  0.0078  0.0277  0.0000  0.0000  0.0000  0.0000  0.0000 </r>
        <r>  0.0122  0.0411  0.0078  0.0277  0.0000  0.0000  0.0000  0.0000  0.0000 </r>
       </set>
       <set comment="band 18">
        <r>  0.0204  0.0139  0.0243  0.0015  0.0000  0.0000  0.0000  0.0000  0.0000 </r>
        <r>  0.0204  0.0139  0.0243  0.0015  0.0000  0.0000  0.0000  0.0000  0.0000 </r>
       </set>
       <set comment="band 19">
        <r>  0.0101  0.0180  0.0132  0.0063  0.0000  0.0000  0.0000  0.0000  0.0000 </r>
        <r>  0.0101  0.0180  0.0132  0.0063  0.0000  0.0000  0.0000  0.0000  0.0000 </r>
       </set>
       <set comment="band 20">
        <r>  0.0015  0.0075  0.0168  0.0376  0.0000  0.0000  0.0000  0.0000  0.0000 </r>
        <r>  0.0015  0.0075  0.0168  0.0376  0.0000  0.0000  0.0000  0.0000  0.0000 </r>
       </set>
       <set comment="band 21">
        <r>  0.0172  0.0009  0.0110  0.0133  0.0000  0.0000  0.0000  0.0000  0.0000 </r>
        <r>  0.0173  0.0009  0.0110  0.0133  0.0000  0.0000  0.0000  0.0000  0.0000 </r>
       </set>
       <set comment="band 22">
        <r>  0.0055  0.0044  0.0010  0.0110  0.0000  0.0000  0.0000  0.0000  0.0000 </r>
        <r>  0.0055  0.0044  0.0010  0.0110  0.0000  0.0000  0.0000  0.0000  0.0000 </r>
       </set>
       <set comment="band 23">
        <r>  0.0161  0.0246  0.0086  0.0133  0.0000  0.0000  0.0000  0.0000  0.0000 </r>
        <r>  0.0161  0.0246  0.0086  0.0133  0.0000  0.0000  0.0000  0.0000  0.0000 </r>
       </set>
       <set comment="band 24">
        <r>  0.0201  0.0005  0.0126  0.0049  0.0000  0.0000  0.0000  0.0000  0.0000 </r>
        <r>  0.0201  0.0005  0.0126  0.0049  0.0000  0.0000  0.0000  0.0000  0.0000 </r>
       </set>
      </set>
      <set comment="kpoint 74">
       <set comment="band 1">
        <r>  0.2185  0.0132  0.0084  0.0092  0.0000  0.0000  0.0000  0.0000  0.0000 </r>
        <r>  0.2185  0.0132  0.0084  0.0092  0.0000  0.0000  0.0000  0.0000  0.0000 </r>
       </set>
       <set comment="band 2">
        <r>  0.1768  0.0277  0.0131  0.0234  0.0000  0.0000  0.0000  0.0000  0.0000 </r>
        <r>  0.1768  0.0277  0.0131  0.0234  0.0000  0.0000  0.0000  0.0000  0.0000 </r>
       </set>
       <set comment="band 3">
        <r>  0.0079  0.0305  0.0234  0.1026  0.0000  0.0000  0.0000  0.0000  0.0000 </r>
        <r>  0.0079  0.0305  0.0234  0.1026  0.0000  0.0000  0.0000  0.0000  0.0000 </r>
       </set>
       <set comment="band 4">
        <r>  0.0011  0.0741  0.1231  0.0004  0.0000  0.0000  0.0000  0.0000  0.0000 </r>
        <r>  0.0011  0.0741  0.1231  0.0004  0.0000  0.0000  0.0000  0.0000  0.0000 </r>
       </set>
       <set comment="band 5">
        <r>  0.0498  0.0277  0.0180  0.0028  0.0000  0.0000  0.0000  0.0000  0.0000 </r>
        <r>  0.0498  0.0277  0.0180  0.0028  0.0000  0.0000  0.0000  0.0000  0.0000 </r>
       </set>
       <set comment="band 6">
        <r>  0.0154  0.0054  0.0030  0.0724  0.0000  0.0000  0.0000  0.0000  0.0000 </r>
        <r>  0.0154  0.0054  0.0030  0.0724  0.0000  0.0000  0.0000  0.0000  0.0000 </r>
       </set>
       <set comment="band 7">
        <r>  0.0345  0.0623  0.0269  0.0257  0.0000  0.0000  0.0000  0.0000  0.0000 </r>
        <r>  0.0345  0.0623  0.0269  0.0257  0.0000  0.0000  0.0000  0.0000  0.0000 </r>
       </set>
       <set comment="band 8">
        <r>  0.0281  0.0224  0.0790  0.0398  0.0000  0.0000  0.0000  0.0000  0.0000 </r>
        <r>  0.0281  0.0224  0.0790  0.0398  0.0000  0.0000  0.0000  0.0000  0.0000 </r>
       </set>
       <set comment="band 9">
        <r>  0.0191  0.0124  0.0521  0.0232  0.0000  0.0000  0.0000  0.0000  0.0000 </r>
        <r>  0.0191  0.0124  0.0521  0.0232  0.0000  0.0000  0.0000  0.0000  0.0000 </r>
       </set>
       <set comment="band 10">
        <r>  0.0166  0.0556  0.0023  0.0448  0.0000  0.0000  0.0000  0.0000  0.0000 </r>
        <r>  0.0166  0.0556  0.0023  0.0448  0.0000  0.0000  0.0000  0.0000  0.0000 </r>
       </set>
       <set comment="band 11">
        <r>  0.0105  0.0601  0.0074  0.0128  0.0000  0.0000  0.0000  0.0000  0.0000 </r>
        <r>  0.0105  0.0601  0.0075  0.0128  0.0000  0.0000  0.0000  0.0000  0.0000 </r>
       </set>
       <set comment="band 12">
        <r>  0.0172  0.0227  0.0057  0.0314  0.0000  0.0000  0.0000  0.0000  0.0000 </r>
        <r>  0.0172  0.0227  0.0057  0.0314  0.0000  0.0000  0.0000  0.0000  0.0000 </r>
       </set>
       <set comment="band 13">
        <r>  0.0089  0.0310  0.0857  0.0417  0.0000  0.0000  0.0000  0.0000  0.0000 </r>
        <r>  0.0089  0.0310  0.0857  0.0417  0.0000  0.0000  0.0000  0.0000  0.0000 </r>
       </set>
       <set comment="band 14">
        <r>  0.0039  0.0260  0.0384  0.0136  0.0000  0.0000  0.0000  0.0000  0.0000 </r>
        <r>  0.0039  0.0260  0.0384  0.0136  0.0000  0.0000  0.0000  0.0000  0.0000 </r>
       </set>
       <set comment="band 15">
        <r>  0.0252  0.0042  0.0006  0.0033  0.0000  0.0000  0.0000  0.0000  0.0000 </r>
        <r>  0.0252  0.0042  0.0006  0.0033  0.0000  0.0000  0.0000  0.0000  0.0000 </r>
       </set>
       <set comment="band 16">
        <r>  0.0071  0.0731  0.0237  0.0057  0.0000  0.0000  0.0000  0.0000  0.0000 </r>
        <r>  0.0071  0.0731  0.0237  0.0057  0.0000  0.0000  0.0000  0.0000  0.0000 </r>
       </set>
       <set comment="band 17">
        <r>  0.0122  0.0080  0.0019  0.0916  0.0000  0.0000  0.0000  0.0000  0.0000 </r>
        <r>  0.0122  0.0080  0.0019  0.0916  0.0000  0.0000  0.0000  0.0000  0.0000 </r>
       </set>
       <set comment="band 18">
        <r>  0.0312  0.0001  0.0045  0.0100  0.0000  0.0000  0.0000  0.0000  0.0000 </r>
        <r>  0.0312  0.0001  0.0045  0.0100  0.0000  0.0000  0.0000  0.0000  0.0000 </r>
       </set>
       <set comment="band 19">
        <r>  0.0055  0.0085  0.0204  0.0052  0.0000  0.0000  0.0000  0.0000  0.0000 </r>
        <r>  0.0055  0.0085  0.0204  0.0052  0.0000  0.0000  0.0000  0.0000  0.0000 </r>
       </set>
       <set comment="band 20">
        <r>  0.0097  0.0028  0.0209  0.0264  0.0000  0.0000  0.0000  0.0000  0.0000 </r>
        <r>  0.0097  0.0028  0.0209  0.0264  0.0000  0.0000  0.0000  0.0000  0.0000 </r>
       </set>
       <set comment="band 21">
        <r>  0.0067  0.0067  0.0046  0.0216  0.0000  0.0000  0.0000  0.0000  0.0000 </r>
        <r>  0.0067  0.0067  0.0046  0.0216  0.0000  0.0000  0.0000  0.0000  0.0000 </r>
       </set>
       <set comment="band 22">
        <r>  0.0223  0.0216  0.0046  0.0122  0.0000  0.0000  0.0000  0.0000  0.0000 </r>
        <r>  0.0223  0.0216  0.0046  0.0122  0.0000  0.0000  0.0000  0.0000  0.0000 </r>
       </set>
       <set comment="band 23">
        <r>  0.0071  0.0018  0.0012  0.0098  0.0000  0.0000  0.0000  0.0000  0.0000 </r>
        <r>  0.0071  0.0018  0.0012  0.0098  0.0000  0.0000  0.0000  0.0000  0.0000 </r>
       </set>
       <set comment="band 24">
        <r>  0.0009  0.0032  0.0042  0.0136  0.0000  0.0000  0.0000  0.0000  0.0000 </r>
        <r>  0.0009  0.0032  0.0042  0.0137  0.0000  0.0000  0.0000  0.0000  0.0000 </r>
       </set>
      </set>
      <set comment="kpoint 75">
       <set comment="band 1">
        <r>  0.2179  0.0148  0.0080  0.0101  0.0000  0.0000  0.0000  0.0000  0.0000 </r>
        <r>  0.2179  0.0148  0.0080  0.0101  0.0000  0.0000  0.0000  0.0000  0.0000 </r>
       </set>
       <set comment="band 2">
        <r>  0.1836  0.0295  0.0144  0.0158  0.0000  0.0000  0.0000  0.0000  0.0000 </r>
        <r>  0.1836  0.0295  0.0144  0.0158  0.0000  0.0000  0.0000  0.0000  0.0000 </r>
       </set>
       <set comment="band 3">
        <r>  0.0019  0.0305  0.0170  0.1106  0.0000  0.0000  0.0000  0.0000  0.0000 </r>
        <r>  0.0020  0.0305  0.0170  0.1106  0.0000  0.0000  0.0000  0.0000  0.0000 </r>
       </set>
       <set comment="band 4">
        <r>  0.0004  0.0690  0.1323  0.0000  0.0000  0.0000  0.0000  0.0000  0.0000 </r>
        <r>  0.0004  0.0690  0.1323  0.0000  0.0000  0.0000  0.0000  0.0000  0.0000 </r>
       </set>
       <set comment="band 5">
        <r>  0.0523  0.0255  0.0139  0.0022  0.0000  0.0000  0.0000  0.0000  0.0000 </r>
        <r>  0.0523  0.0255  0.0139  0.0022  0.0000  0.0000  0.0000  0.0000  0.0000 </r>
       </set>
       <set comment="band 6">
        <r>  0.0206  0.0065  0.0033  0.0719  0.0000  0.0000  0.0000  0.0000  0.0000 </r>
        <r>  0.0206  0.0065  0.0033  0.0719  0.0000  0.0000  0.0000  0.0000  0.0000 </r>
       </set>
       <set comment="band 7">
        <r>  0.0181  0.0667  0.0461  0.0135  0.0000  0.0000  0.0000  0.0000  0.0000 </r>
        <r>  0.0181  0.0667  0.0461  0.0135  0.0000  0.0000  0.0000  0.0000  0.0000 </r>
       </set>
       <set comment="band 8">
        <r>  0.0326  0.0264  0.0731  0.0438  0.0000  0.0000  0.0000  0.0000  0.0000 </r>
        <r>  0.0326  0.0264  0.0731  0.0438  0.0000  0.0000  0.0000  0.0000  0.0000 </r>
       </set>
       <set comment="band 9">
        <r>  0.0209  0.0124  0.0407  0.0274  0.0000  0.0000  0.0000  0.0000  0.0000 </r>
        <r>  0.0209  0.0124  0.0407  0.0274  0.0000  0.0000  0.0000  0.0000  0.0000 </r>
       </set>
       <set comment="band 10">
        <r>  0.0217  0.0469  0.0004  0.0514  0.0000  0.0000  0.0000  0.0000  0.0000 </r>
        <r>  0.0217  0.0469  0.0004  0.0514  0.0000  0.0000  0.0000  0.0000  0.0000 </r>
       </set>
       <set comment="band 11">
        <r>  0.0054  0.0765  0.0075  0.0381  0.0000  0.0000  0.0000  0.0000  0.0000 </r>
        <r>  0.0054  0.0765  0.0075  0.0381  0.0000  0.0000  0.0000  0.0000  0.0000 </r>
       </set>
       <set comment="band 12">
        <r>  0.0097  0.0062  0.0134  0.0158  0.0000  0.0000  0.0000  0.0000  0.0000 </r>
        <r>  0.0097  0.0062  0.0134  0.0158  0.0000  0.0000  0.0000  0.0000  0.0000 </r>
       </set>
       <set comment="band 13">
        <r>  0.0086  0.0372  0.0665  0.0367  0.0000  0.0000  0.0000  0.0000  0.0000 </r>
        <r>  0.0086  0.0372  0.0665  0.0367  0.0000  0.0000  0.0000  0.0000  0.0000 </r>
       </set>
       <set comment="band 14">
        <r>  0.0033  0.0183  0.0475  0.0080  0.0000  0.0000  0.0000  0.0000  0.0000 </r>
        <r>  0.0033  0.0183  0.0475  0.0080  0.0000  0.0000  0.0000  0.0000  0.0000 </r>
       </set>
       <set comment="band 15">
        <r>  0.0167  0.0267  0.0031  0.0076  0.0000  0.0000  0.0000  0.0000  0.0000 </r>
        <r>  0.0167  0.0267  0.0031  0.0076  0.0000  0.0000  0.0000  0.0000  0.0000 </r>
       </set>
       <set comment="band 16">
        <r>  0.0333  0.0612  0.0249  0.0116  0.0000  0.0000  0.0000  0.0000  0.0000 </r>
        <r>  0.0333  0.0612  0.0249  0.0116  0.0000  0.0000  0.0000  0.0000  0.0000 </r>
       </set>
       <set comment="band 17">
        <r>  0.0106  0.0045  0.0017  0.0739  0.0000  0.0000  0.0000  0.0000  0.0000 </r>
        <r>  0.0106  0.0045  0.0017  0.0739  0.0000  0.0000  0.0000  0.0000  0.0000 </r>
       </set>
       <set comment="band 18">
        <r>  0.0267  0.0025  0.0000  0.0218  0.0000  0.0000  0.0000  0.0000  0.0000 </r>
        <r>  0.0267  0.0025  0.0000  0.0218  0.0000  0.0000  0.0000  0.0000  0.0000 </r>
       </set>
       <set comment="band 19">
        <r>  0.0011  0.0085  0.0236  0.0018  0.0000  0.0000  0.0000  0.0000  0.0000 </r>
        <r>  0.0011  0.0085  0.0236  0.0018  0.0000  0.0000  0.0000  0.0000  0.0000 </r>
       </set>
       <set comment="band 20">
        <r>  0.0074  0.0039  0.0237  0.0024  0.0000  0.0000  0.0000  0.0000  0.0000 </r>
        <r>  0.0074  0.0039  0.0237  0.0024  0.0000  0.0000  0.0000  0.0000  0.0000 </r>
       </set>
       <set comment="band 21">
        <r>  0.0071  0.0123  0.0011  0.0385  0.0000  0.0000  0.0000  0.0000  0.0000 </r>
        <r>  0.0071  0.0123  0.0011  0.0385  0.0000  0.0000  0.0000  0.0000  0.0000 </r>
       </set>
       <set comment="band 22">
        <r>  0.0299  0.0112  0.0035  0.0177  0.0000  0.0000  0.0000  0.0000  0.0000 </r>
        <r>  0.0299  0.0112  0.0035  0.0176  0.0000  0.0000  0.0000  0.0000  0.0000 </r>
       </set>
       <set comment="band 23">
        <r>  0.0081  0.0005  0.0006  0.0081  0.0000  0.0000  0.0000  0.0000  0.0000 </r>
        <r>  0.0081  0.0005  0.0006  0.0081  0.0000  0.0000  0.0000  0.0000  0.0000 </r>
       </set>
       <set comment="band 24">
        <r>  0.0045  0.0037  0.0016  0.0127  0.0000  0.0000  0.0000  0.0000  0.0000 </r>
        <r>  0.0045  0.0037  0.0016  0.0127  0.0000  0.0000  0.0000  0.0000  0.0000 </r>
       </set>
      </set>
      <set comment="kpoint 76">
       <set comment="band 1">
        <r>  0.2176  0.0161  0.0081  0.0101  0.0000  0.0000  0.0000  0.0000  0.0000 </r>
        <r>  0.2177  0.0161  0.0081  0.0101  0.0000  0.0000  0.0000  0.0000  0.0000 </r>
       </set>
       <set comment="band 2">
        <r>  0.1859  0.0303  0.0151  0.0120  0.0000  0.0000  0.0000  0.0000  0.0000 </r>
        <r>  0.1860  0.0303  0.0151  0.0120  0.0000  0.0000  0.0000  0.0000  0.0000 </r>
       </set>
       <set comment="band 3">
        <r>  0.0000  0.0289  0.0145  0.1157  0.0000  0.0000  0.0000  0.0000  0.0000 </r>
        <r>  0.0000  0.0289  0.0145  0.1157  0.0000  0.0000  0.0000  0.0000  0.0000 </r>
       </set>
       <set comment="band 4">
        <r>  0.0000  0.0676  0.1352  0.0000  0.0000  0.0000  0.0000  0.0000  0.0000 </r>
        <r>  0.0000  0.0676  0.1352  0.0000  0.0000  0.0000  0.0000  0.0000  0.0000 </r>
       </set>
       <set comment="band 5">
        <r>  0.0530  0.0244  0.0122  0.0019  0.0000  0.0000  0.0000  0.0000  0.0000 </r>
        <r>  0.0530  0.0244  0.0122  0.0019  0.0000  0.0000  0.0000  0.0000  0.0000 </r>
       </set>
       <set comment="band 6">
        <r>  0.0233  0.0076  0.0038  0.0699  0.0000  0.0000  0.0000  0.0000  0.0000 </r>
        <r>  0.0233  0.0076  0.0038  0.0699  0.0000  0.0000  0.0000  0.0000  0.0000 </r>
       </set>
       <set comment="band 7">
        <r>  0.0000  0.0519  0.1038  0.0000  0.0000  0.0000  0.0000  0.0000  0.0000 </r>
        <r>  0.0000  0.0519  0.1038  0.0000  0.0000  0.0000  0.0000  0.0000  0.0000 </r>
       </set>
       <set comment="band 8">
        <r>  0.0354  0.0691  0.0345  0.0000  0.0000  0.0000  0.0000  0.0000  0.0000 </r>
        <r>  0.0354  0.0691  0.0345  0.0000  0.0000  0.0000  0.0000  0.0000  0.0000 </r>
       </set>
       <set comment="band 9">
        <r>  0.0540  0.0251  0.0126  0.1398  0.0000  0.0000  0.0000  0.0000  0.0000 </r>
        <r>  0.0540  0.0251  0.0126  0.1398  0.0000  0.0000  0.0000  0.0000  0.0000 </r>
       </set>
       <set comment="band 10">
        <r>  0.0000  0.0045  0.0091  0.0000  0.0000  0.0000  0.0000  0.0000  0.0000 </r>
        <r>  0.0000  0.0045  0.0091  0.0000  0.0000  0.0000  0.0000  0.0000  0.0000 </r>
       </set>
       <set comment="band 11">
        <r>  0.0012  0.0860  0.0430  0.0726  0.0000  0.0000  0.0000  0.0000  0.0000 </r>
        <r>  0.0012  0.0860  0.0430  0.0726  0.0000  0.0000  0.0000  0.0000  0.0000 </r>
       </set>
       <set comment="band 12">
        <r>  0.0000  0.0003  0.0007  0.0000  0.0000  0.0000  0.0000  0.0000  0.0000 </r>
        <r>  0.0000  0.0003  0.0007  0.0000  0.0000  0.0000  0.0000  0.0000  0.0000 </r>
       </set>
       <set comment="band 13">
        <r>  0.0000  0.0319  0.0638  0.0000  0.0000  0.0000  0.0000  0.0000  0.0000 </r>
        <r>  0.0000  0.0319  0.0638  0.0000  0.0000  0.0000  0.0000  0.0000  0.0000 </r>
       </set>
       <set comment="band 14">
        <r>  0.0291  0.0338  0.0169  0.0031  0.0000  0.0000  0.0000  0.0000  0.0000 </r>
        <r>  0.0291  0.0337  0.0169  0.0031  0.0000  0.0000  0.0000  0.0000  0.0000 </r>
       </set>
       <set comment="band 15">
        <r>  0.0030  0.0286  0.0143  0.0336  0.0000  0.0000  0.0000  0.0000  0.0000 </r>
        <r>  0.0030  0.0287  0.0144  0.0335  0.0000  0.0000  0.0000  0.0000  0.0000 </r>
       </set>
       <set comment="band 16">
        <r>  0.0446  0.0481  0.0240  0.0085  0.0000  0.0000  0.0000  0.0000  0.0000 </r>
        <r>  0.0446  0.0481  0.0240  0.0085  0.0000  0.0000  0.0000  0.0000  0.0000 </r>
       </set>
       <set comment="band 17">
        <r>  0.0255  0.0042  0.0021  0.0081  0.0000  0.0000  0.0000  0.0000  0.0000 </r>
        <r>  0.0255  0.0042  0.0021  0.0081  0.0000  0.0000  0.0000  0.0000  0.0000 </r>
       </set>
       <set comment="band 18">
        <r>  0.0083  0.0016  0.0008  0.0873  0.0000  0.0000  0.0000  0.0000  0.0000 </r>
        <r>  0.0083  0.0016  0.0008  0.0873  0.0000  0.0000  0.0000  0.0000  0.0000 </r>
       </set>
       <set comment="band 19">
        <r>  0.0000  0.0141  0.0281  0.0000  0.0000  0.0000  0.0000  0.0000  0.0000 </r>
        <r>  0.0000  0.0141  0.0281  0.0000  0.0000  0.0000  0.0000  0.0000  0.0000 </r>
       </set>
       <set comment="band 20">
        <r>  0.0000  0.0082  0.0164  0.0000  0.0000  0.0000  0.0000  0.0000  0.0000 </r>
        <r>  0.0000  0.0082  0.0164  0.0000  0.0000  0.0000  0.0000  0.0000  0.0000 </r>
       </set>
       <set comment="band 21">
        <r>  0.0470  0.0101  0.0050  0.0151  0.0000  0.0000  0.0000  0.0000  0.0000 </r>
        <r>  0.0470  0.0101  0.0050  0.0151  0.0000  0.0000  0.0000  0.0000  0.0000 </r>
       </set>
       <set comment="band 22">
        <r>  0.0002  0.0053  0.0027  0.0424  0.0000  0.0000  0.0000  0.0000  0.0000 </r>
        <r>  0.0002  0.0053  0.0027  0.0424  0.0000  0.0000  0.0000  0.0000  0.0000 </r>
       </set>
       <set comment="band 23">
        <r>  0.0086  0.0001  0.0001  0.0058  0.0000  0.0000  0.0000  0.0000  0.0000 </r>
        <r>  0.0086  0.0001  0.0001  0.0058  0.0000  0.0000  0.0000  0.0000  0.0000 </r>
       </set>
       <set comment="band 24">
        <r>  0.0066  0.0031  0.0015  0.0118  0.0000  0.0000  0.0000  0.0000  0.0000 </r>
        <r>  0.0066  0.0031  0.0015  0.0118  0.0000  0.0000  0.0000  0.0000  0.0000 </r>
       </set>
      </set>
     </set>
    </set>
   </array>
  </projected>
 </calculation>
 <structure name="finalpos" >
  <crystal>
   <varray name="basis" >
    <v>       3.83958960       0.00000000       0.00000000 </v>
    <v>       1.91979480       3.32518213       0.00000000 </v>
    <v>       1.91979480       1.10839404       3.13501178 </v>
   </varray>
   <i name="volume">     40.02574468 </i>
   <varray name="rec_basis" >
    <v>       0.26044450      -0.15036770      -0.10632602 </v>
    <v>       0.00000000       0.30073541      -0.10632602 </v>
    <v>       0.00000000       0.00000000       0.31897807 </v>
   </varray>
  </crystal>
  <varray name="positions" >
   <v>       0.00000000       0.00000000       0.00000000 </v>
   <v>       0.25000000       0.25000000       0.24999999 </v>
  </varray>
 </structure>
</modeling>
